oh_rad1_sto3g
SP        ROHF                                                        STO-3G
Number of atoms                            I                2
Charge                                     I                0
Multiplicity                               I                2
Number of electrons                        I                9
Number of alpha electrons                  I                5
Number of beta electrons                   I                4
Number of basis functions                  I                6
Number of independant functions            I                6
Number of contracted shells                I                3
Highest angular momentum                   I                1
Largest degree of contraction              I                3
Number of primitive shells                 I                9
Virial Ratio                               R      2.004584116380540E+00
SCF Energy                                 R     -7.436007700203925E+01
Total Energy                               R     -7.436007700203925E+01
S**2                                       R      7.500000000000058E-01
S**2 after annihilation                    R      7.499999999999949E-01
RMS Density                                R      8.977997710693391E-06
Atomic numbers                             I   N=           2
           8           1
Nuclear charges                            R   N=           2
  8.00000000E+00  1.00000000E+00
Current cartesian coordinates              R   N=           6
  0.00000000E+00  0.00000000E+00  2.01087858E-01  0.00000000E+00  0.00000000E+00
 -1.60870286E+00
Shell types                                I   N=           3
           0          -1           0
Number of primitives per shell             I   N=           3
           3           3           3
Shell to atom map                          I   N=           3
           1           1           2
Primitive exponents                        R   N=           9
  1.30709321E+02  2.38088661E+01  6.44360831E+00  5.03315132E+00  1.16959612E+00
  3.80388960E-01  3.42525091E+00  6.23913730E-01  1.68855404E-01
Contraction coefficients                   R   N=           9
  1.54328967E-01  5.35328142E-01  4.44634542E-01 -9.99672292E-02  3.99512826E-01
  7.00115469E-01  1.54328967E-01  5.35328142E-01  4.44634542E-01
P(S=P) Contraction coefficients            R   N=           9
  0.00000000E+00  0.00000000E+00  0.00000000E+00  1.55916275E-01  6.07683719E-01
  3.91957393E-01  0.00000000E+00  0.00000000E+00  0.00000000E+00
Coordinates of each shell                  R   N=           9
  0.00000000E+00  0.00000000E+00  2.01087858E-01  0.00000000E+00  0.00000000E+00
  2.01087858E-01  0.00000000E+00  0.00000000E+00 -1.60870286E+00
Alpha Orbital Energies                     R   N=           6
 -2.02663104E+01 -1.18778950E+00 -5.21473569E-01 -3.96170372E-01 -5.50728969E-02
  6.44671667E-01
Alpha MO coefficients                      R   N=          36
  9.94626793E-01  2.33409383E-02  0.00000000E+00  0.00000000E+00 -3.79842004E-03
 -6.61606376E-03 -2.39714989E-01  8.87266774E-01  0.00000000E+00  0.00000000E+00
 -1.24903736E-01  2.13188291E-01 -1.00792420E-01  5.15738267E-01  0.00000000E+00
  0.00000000E+00  6.79754872E-01 -5.07836052E-01  0.00000000E+00  0.00000000E+00
  0.00000000E+00  1.00000000E+00  0.00000000E+00  0.00000000E+00  0.00000000E+00
  0.00000000E+00  1.00000000E+00  0.00000000E+00  0.00000000E+00  0.00000000E+00
  9.30392802E-02 -6.27364884E-01  0.00000000E+00  0.00000000E+00  8.79296022E-01
  1.14823048E+00
Total SCF Density                          R   N=          21
  1.05690485E+00 -2.41458130E-01  1.05377309E+00  0.00000000E+00  0.00000000E+00
  1.00000000E+00  0.00000000E+00  0.00000000E+00  0.00000000E+00  1.00000000E+00
 -4.23508510E-02  2.39664006E-01  0.00000000E+00  0.00000000E+00  4.77682057E-01
 -6.49891854E-03 -7.29100230E-02  0.00000000E+00  0.00000000E+00 -3.71806914E-01
  3.03390475E-01
Dipole Moment                              R   N=           3
  0.00000000E+00  0.00000000E+00 -5.07693653E-01
