oh_rad2_sto3g
SP        UHF                                                         STO-3G
Number of atoms                            I                2
Charge                                     I                0
Multiplicity                               I                2
Number of electrons                        I                9
Number of alpha electrons                  I                5
Number of beta electrons                   I                4
Number of basis functions                  I                6
Number of independant functions            I                6
Number of contracted shells                I                3
Highest angular momentum                   I                1
Largest degree of contraction              I                3
Number of primitive shells                 I                9
Virial Ratio                               R      2.004601758689300E+00
SCF Energy                                 R     -7.436116574636311E+01
Total Energy                               R     -7.436116574636311E+01
S**2                                       R      7.530160094011968E-01
S**2 after annihilation                    R      7.499999999999854E-01
RMS Density                                R      4.253052492946908E-04
Atomic numbers                             I   N=           2
           8           1
Nuclear charges                            R   N=           2
  8.00000000E+00  1.00000000E+00
Current cartesian coordinates              R   N=           6
  0.00000000E+00  0.00000000E+00  2.01087858E-01  0.00000000E+00  0.00000000E+00
 -1.60870286E+00
Shell types                                I   N=           3
           0          -1           0
Number of primitives per shell             I   N=           3
           3           3           3
Shell to atom map                          I   N=           3
           1           1           2
Primitive exponents                        R   N=           9
  1.30709321E+02  2.38088661E+01  6.44360831E+00  5.03315132E+00  1.16959612E+00
  3.80388960E-01  3.42525091E+00  6.23913730E-01  1.68855404E-01
Contraction coefficients                   R   N=           9
  1.54328967E-01  5.35328142E-01  4.44634542E-01 -9.99672292E-02  3.99512826E-01
  7.00115469E-01  1.54328967E-01  5.35328142E-01  4.44634542E-01
P(S=P) Contraction coefficients            R   N=           9
  0.00000000E+00  0.00000000E+00  0.00000000E+00  1.55916275E-01  6.07683719E-01
  3.91957393E-01  0.00000000E+00  0.00000000E+00  0.00000000E+00
Coordinates of each shell                  R   N=           9
  0.00000000E+00  0.00000000E+00  2.01087858E-01  0.00000000E+00  0.00000000E+00
  2.01087858E-01  0.00000000E+00  0.00000000E+00 -1.60870286E+00
Alpha Orbital Energies                     R   N=           6
 -2.02850453E+01 -1.29590853E+00 -5.53744083E-01 -5.24956112E-01 -4.30067224E-01
  6.32677753E-01
Beta Orbital Energies                      R   N=           6
 -2.02565946E+01 -1.13271582E+00 -5.05316759E-01 -3.78250103E-01  3.59575654E-01
  6.68548659E-01
Alpha MO coefficients                      R   N=          36
  9.94266794E-01  2.48147786E-02  0.00000000E+00  0.00000000E+00 -3.90932760E-03
 -6.91535080E-03 -2.46670414E-01  9.20063389E-01  0.00000000E+00  0.00000000E+00
 -1.15476493E-01  1.68822174E-01 -8.98413185E-02  4.68633688E-01  0.00000000E+00
  0.00000000E+00  6.99702718E-01 -4.95493556E-01  0.00000000E+00  0.00000000E+00
  1.00000000E+00  0.00000000E+00  0.00000000E+00  0.00000000E+00  0.00000000E+00
  0.00000000E+00  0.00000000E+00  1.00000000E+00  0.00000000E+00  0.00000000E+00
  8.98717940E-02 -6.16935846E-01  0.00000000E+00  0.00000000E+00  8.64817642E-01
  1.16093113E+00
Beta MO coefficients                       R   N=          36
  9.94821161E-01  2.25101424E-02  0.00000000E+00  0.00000000E+00 -3.61993202E-03
 -6.31368233E-03 -2.34464044E-01  8.60158617E-01  0.00000000E+00  0.00000000E+00
 -1.20553720E-01  2.51547643E-01 -1.07687799E-01  5.46428719E-01  0.00000000E+00
  0.00000000E+00  6.62941723E-01 -5.20224255E-01  0.00000000E+00  0.00000000E+00
  0.00000000E+00  1.00000000E+00  0.00000000E+00  0.00000000E+00  0.00000000E+00
  0.00000000E+00  1.00000000E+00  0.00000000E+00  0.00000000E+00  0.00000000E+00
  9.65503007E-02 -6.39058594E-01  0.00000000E+00  0.00000000E+00  8.92639636E-01
  1.13484552E+00
Total SCF Density                          R   N=          21
  2.11372341E+00 -4.82508983E-01  2.10571384E+00  0.00000000E+00  0.00000000E+00
  1.00000000E+00  0.00000000E+00  0.00000000E+00  0.00000000E+00  2.00000000E+00
 -8.49909024E-02  4.80035153E-01  0.00000000E+00  0.00000000E+00  9.56972029E-01
 -1.32414023E-02 -1.45086196E-01  0.00000000E+00  0.00000000E+00 -7.41346659E-01
  6.08011967E-01
Spin SCF Density                           R   N=          21
  1.24502121E-03 -6.25616822E-03  2.77860492E-02  0.00000000E+00  0.00000000E+00
  1.00000000E+00  0.00000000E+00  0.00000000E+00  0.00000000E+00  0.00000000E+00
  8.46191231E-03 -3.69120275E-02  0.00000000E+00  0.00000000E+00  4.88959654E-02
  5.23471257E-03 -9.01275220E-03  0.00000000E+00  0.00000000E+00  9.01436638E-03
 -5.98867416E-02
Dipole Moment                              R   N=           3
  0.00000000E+00  0.00000000E+00 -5.08603120E-01
