blablabla                                                               
SP        RHF                                                         STO-3G              
Number of atoms                            I                2
Charge                                     I                0
Multiplicity                               I                1
Number of electrons                        I               10
Number of alpha electrons                  I                5
Number of beta electrons                   I                5
Number of basis functions                  I                6
Number of independant functions            I                6
Number of point charges in /Mol/           I                0
Number of translation vectors              I                0
Info1-9                                    I   N=           9
          10           9           0           0           0         110
           1           1           2
Num ILSW                                   I              100
ILSW                                       I   N=         100
           0           0           0           0           2           0
           0           0           0           0           0     1000000
           0           0           0           0           0           0
           0     1000000           0           0           0           0
           1           0           0           0     1000000           0
           0           0      100000           0          -1           0
           0           0           0           0           0           0
           0           0           0           1           0           0
           0           0           1     1000000     1000000           0
           0           0           0           0           0           0
           0           0           0           0           0           0
           0           0           0           0           0           0
           0           0           0           0           0           0
           0           0           0           0           0           0
           0           0           0           0           0           0
           0           0           0           0           0           0
           0           0           0           0
Number of contracted shells                I                3
Highest angular momentum                   I                1
Largest degree of contraction              I                3
Number of primitive shells                 I                9
Pure/Cartesian d shells                    I                0
Pure/Cartesian f shells                    I                0
Virial Ratio                               R      2.009299536907962E+00
SCF Energy                                 R     -9.856961609951867E+01
Total Energy                               R     -9.856961609951867E+01
RMS Density                                R      5.866654425348013E-06
Atomic numbers                             I   N=           2
           9           1
Nuclear charges                            R   N=           2
  9.00000000E+00  1.00000000E+00
Current cartesian coordinates              R   N=           6
  0.00000000E+00  0.00000000E+00  1.90484394E-01  0.00000000E+00  0.00000000E+00
 -1.71435955E+00
Int Atom Types                             I   N=           2
           0           0
Force Field                                I                0
MM charges                                 R   N=           2
  0.00000000E+00  0.00000000E+00
Integer atomic weights                     I   N=           2
          19           1
Real atomic weights                        R   N=           2
  1.89984033E+01  1.00782504E+00
Atom residue info                          I   N=           2
           0           0
Atom fragment info                         I   N=           2
           0           0
Atom residue num                           I   N=           2
           0           0
Nuclear spins                              I   N=           2
           1           1
Nuclear ZEff                               R   N=           2
 -6.75000000E+00 -1.00000000E+00
Nuclear QMom                               R   N=           2
 -9.42000000E+00  0.00000000E+00
Nuclear GFac                               R   N=           2
  2.62886700E+00  2.79284600E+00
MicOpt                                     I   N=           2
          -1          -1
Constraint Structure                       R   N=           6
  0.00000000E+00  0.00000000E+00  1.90484394E-01  0.00000000E+00  0.00000000E+00
 -1.71435955E+00
ONIOM Charges                              I   N=          16
           0           0           0           0           0           0
           0           0           0           0           0           0
           0           0           0           0
ONIOM Multiplicities                       I   N=          16
           1           0           0           0           0           0
           0           0           0           0           0           0
           0           0           0           0
Atom Layers                                I   N=           2
           1           1
Atom Modifiers                             I   N=           2
           0           0
Int Atom Modified Types                    I   N=           2
           0           0
Link Atoms                                 I   N=           2
           0           0
Atom Modified MM Charges                   R   N=           2
  0.00000000E+00  0.00000000E+00
Link Distances                             R   N=           8
  0.00000000E+00  0.00000000E+00  0.00000000E+00  0.00000000E+00  0.00000000E+00
  0.00000000E+00  0.00000000E+00  0.00000000E+00
MxBond                                     I                1
NBond                                      I   N=           2
           1           1
IBond                                      I   N=           2
           2           1
RBond                                      R   N=           2
  1.00000000E+00  1.00000000E+00
Shell types                                I   N=           3
           0          -1           0
Number of primitives per shell             I   N=           3
           3           3           3
Shell to atom map                          I   N=           3
           1           1           2
Primitive exponents                        R   N=           9
  1.66679134E+02  3.03608123E+01  8.21682067E+00  6.46480325E+00  1.50228124E+00
  4.88588486E-01  3.42525091E+00  6.23913730E-01  1.68855404E-01
Contraction coefficients                   R   N=           9
  1.54328967E-01  5.35328142E-01  4.44634542E-01 -9.99672292E-02  3.99512826E-01
  7.00115469E-01  1.54328967E-01  5.35328142E-01  4.44634542E-01
P(S=P) Contraction coefficients            R   N=           9
  0.00000000E+00  0.00000000E+00  0.00000000E+00  1.55916275E-01  6.07683719E-01
  3.91957393E-01  0.00000000E+00  0.00000000E+00  0.00000000E+00
Coordinates of each shell                  R   N=           9
  0.00000000E+00  0.00000000E+00  1.90484394E-01  0.00000000E+00  0.00000000E+00
  1.90484394E-01  0.00000000E+00  0.00000000E+00 -1.71435955E+00
Alpha Orbital Energies                     R   N=           6
 -2.59083334E+01 -1.44689996E+00 -5.57467136E-01 -4.62288194E-01 -4.62288194E-01
  5.39578910E-01
Alpha MO coefficients                      R   N=          36
  9.94803448E-01  2.18171240E-02  0.00000000E+00  0.00000000E+00 -2.32641328E-03
 -4.79956235E-03 -2.52541943E-01  9.59473606E-01  0.00000000E+00  0.00000000E+00
 -6.43303484E-02  1.39537839E-01 -7.25975847E-02  3.79097630E-01  0.00000000E+00
  0.00000000E+00  6.93582825E-01 -5.48754967E-01  0.00000000E+00  0.00000000E+00
  1.00000000E+00  0.00000000E+00  0.00000000E+00  0.00000000E+00  0.00000000E+00
  0.00000000E+00  0.00000000E+00  1.00000000E+00  0.00000000E+00  0.00000000E+00
  7.48777677E-02 -4.62627490E-01  0.00000000E+00  0.00000000E+00  8.05942415E-01
  1.01124712E+00
Total SCF Density                          R   N=          21
  2.11736348E+00 -4.96250301E-01  2.12956120E+00  0.00000000E+00  0.00000000E+00
  2.00000000E+00  0.00000000E+00  0.00000000E+00  0.00000000E+00  2.00000000E+00
 -7.28413014E-02  4.02323157E-01  0.00000000E+00  0.00000000E+00  9.70401883E-01
 -3.50985618E-04 -1.48507094E-01  0.00000000E+00  0.00000000E+00 -7.79144745E-01
  6.41251717E-01
Cartesian Gradient                         R   N=           6
  0.00000000E+00  0.00000000E+00  0.00000000E+00  0.00000000E+00  0.00000000E+00
  0.00000000E+00
Dipole Moment                              R   N=           3
  0.00000000E+00  0.00000000E+00 -4.73896291E-01
QEq coupling tensors                       R   N=          12
  1.98900728E+00  0.00000000E+00  1.98900728E+00  0.00000000E+00  0.00000000E+00
 -3.97801455E+00  1.46461078E-01  0.00000000E+00  1.46461078E-01  0.00000000E+00
  0.00000000E+00 -2.92922157E-01
Mulliken Charges                           R   N=           2
 -1.69934874E-01  1.69934874E-01
