ethanol                                                                 
SP        RB3LYP                                                      6-31G(d)            
Number of atoms                            I                9
Charge                                     I                0
Multiplicity                               I                1
Number of electrons                        I               26
Number of alpha electrons                  I               13
Number of beta electrons                   I               13
Number of basis functions                  I               57
Number of independant functions            I               57
Number of point charges in /Mol/           I                0
Number of translation vectors              I                0
Info1-9                                    I   N=           9
          18          18           0           0           0         110
           1          18        -502
Num ILSW                                   I              100
ILSW                                       I   N=         100
           0           1           0           0           2           0
           0           0           0           0         402      200000
           0           0           0           0           0           0
           0      800000           0           0           0           0
           1           0           0           0     1000000           0
           0           0      100000           0          -1           0
           0           0           0           0           0           0
           0           0           0           1           0           0
           0           0           1      720000      810000           0
           0           0           0           0           0           0
           0           0           0           0           0           0
           0           0           0           0           0           0
           0           0           0           0           0           0
           0           0           0           0           0           0
           0           0           0           0           0           0
           0           0           0           0           0           0
           0           0           0           0
Number of contracted shells                I               24
Highest angular momentum                   I                2
Largest degree of contraction              I                6
Number of primitive shells                 I               57
Pure/Cartesian d shells                    I                1
Pure/Cartesian f shells                    I                0
Virial Ratio                               R      2.009217609357064E+00
SCF Energy                                 R     -1.550342871222725E+02
Total Energy                               R     -1.550342871222725E+02
RMS Density                                R      5.775804386414882E-09
Atomic numbers                             I   N=           9
           8           6           6           1           1           1
           1           1           1
Nuclear charges                            R   N=           9
  8.00000000E+00  6.00000000E+00  6.00000000E+00  1.00000000E+00  1.00000000E+00
  1.00000000E+00  1.00000000E+00  1.00000000E+00  1.00000000E+00
Current cartesian coordinates              R   N=          27
  2.34453941E+00 -4.92175887E-01 -2.07782887E-01  1.59665952E-01  1.05046340E+00
  8.90710129E-02 -2.29855676E+00 -4.52417475E-01 -4.13016448E-02  2.45125517E-01
  2.13441105E+00  1.86639386E+00  2.45351689E-01  2.41879520E+00 -1.46068472E+00
 -3.94371259E+00  8.00731094E-01  9.47308182E-02 -2.41240437E+00 -1.49918662E+00
 -1.82257565E+00 -2.42055926E+00 -1.81754663E+00  1.51668263E+00  2.36322860E+00
 -1.68807253E+00  1.18109995E+00
Int Atom Types                             I   N=           9
           0           0           0           0           0           0
           0           0           0
Force Field                                I                0
MM charges                                 R   N=           9
  0.00000000E+00  0.00000000E+00  0.00000000E+00  0.00000000E+00  0.00000000E+00
  0.00000000E+00  0.00000000E+00  0.00000000E+00  0.00000000E+00
Integer atomic weights                     I   N=           9
          16          12          12           1           1           1
           1           1           1
Real atomic weights                        R   N=           9
  1.59949146E+01  1.20000000E+01  1.20000000E+01  1.00782504E+00  1.00782504E+00
  1.00782504E+00  1.00782504E+00  1.00782504E+00  1.00782504E+00
Atom residue info                          I   N=           9
           0           0           0           0           0           0
           0           0           0
Atom fragment info                         I   N=           9
           0           0           0           0           0           0
           0           0           0
Atom residue num                           I   N=           9
           0           0           0           0           0           0
           0           0           0
Nuclear spins                              I   N=           9
           0           0           0           1           1           1
           1           1           1
Nuclear ZEff                               R   N=           9
 -5.60000000E+00 -3.60000000E+00 -3.60000000E+00 -1.00000000E+00 -1.00000000E+00
 -1.00000000E+00 -1.00000000E+00 -1.00000000E+00 -1.00000000E+00
Nuclear QMom                               R   N=           9
  0.00000000E+00  0.00000000E+00  0.00000000E+00  0.00000000E+00  0.00000000E+00
  0.00000000E+00  0.00000000E+00  0.00000000E+00  0.00000000E+00
Nuclear GFac                               R   N=           9
  0.00000000E+00  0.00000000E+00  0.00000000E+00  2.79284600E+00  2.79284600E+00
  2.79284600E+00  2.79284600E+00  2.79284600E+00  2.79284600E+00
MicOpt                                     I   N=           9
          -1          -1          -1          -1          -1          -1
          -1          -1          -1
Constraint Structure                       R   N=          27
  2.34453941E+00 -4.92175887E-01 -2.07782887E-01  1.59665952E-01  1.05046340E+00
  8.90710129E-02 -2.29855676E+00 -4.52417475E-01 -4.13016448E-02  2.45125517E-01
  2.13441105E+00  1.86639386E+00  2.45351689E-01  2.41879520E+00 -1.46068472E+00
 -3.94371259E+00  8.00731094E-01  9.47308182E-02 -2.41240437E+00 -1.49918662E+00
 -1.82257565E+00 -2.42055926E+00 -1.81754663E+00  1.51668263E+00  2.36322860E+00
 -1.68807253E+00  1.18109995E+00
ONIOM Charges                              I   N=          16
           0           0           0           0           0           0
           0           0           0           0           0           0
           0           0           0           0
ONIOM Multiplicities                       I   N=          16
           1           0           0           0           0           0
           0           0           0           0           0           0
           0           0           0           0
Atom Layers                                I   N=           9
           1           1           1           1           1           1
           1           1           1
Atom Modifiers                             I   N=           9
           0           0           0           0           0           0
           0           0           0
Int Atom Modified Types                    I   N=           9
           0           0           0           0           0           0
           0           0           0
Link Atoms                                 I   N=           9
           0           0           0           0           0           0
           0           0           0
Atom Modified MM Charges                   R   N=           9
  0.00000000E+00  0.00000000E+00  0.00000000E+00  0.00000000E+00  0.00000000E+00
  0.00000000E+00  0.00000000E+00  0.00000000E+00  0.00000000E+00
Link Distances                             R   N=          36
  0.00000000E+00  0.00000000E+00  0.00000000E+00  0.00000000E+00  0.00000000E+00
  0.00000000E+00  0.00000000E+00  0.00000000E+00  0.00000000E+00  0.00000000E+00
  0.00000000E+00  0.00000000E+00  0.00000000E+00  0.00000000E+00  0.00000000E+00
  0.00000000E+00  0.00000000E+00  0.00000000E+00  0.00000000E+00  0.00000000E+00
  0.00000000E+00  0.00000000E+00  0.00000000E+00  0.00000000E+00  0.00000000E+00
  0.00000000E+00  0.00000000E+00  0.00000000E+00  0.00000000E+00  0.00000000E+00
  0.00000000E+00  0.00000000E+00  0.00000000E+00  0.00000000E+00  0.00000000E+00
  0.00000000E+00
MxBond                                     I                4
NBond                                      I   N=           9
           2           4           4           1           1           1
           1           1           1
IBond                                      I   N=          36
           2           9           0           0           1           3
           4           5           2           6           7           8
           2           0           0           0           2           0
           0           0           3           0           0           0
           3           0           0           0           3           0
           0           0           1           0           0           0
RBond                                      R   N=          36
  1.00000000E+00  1.00000000E+00  0.00000000E+00  0.00000000E+00  1.00000000E+00
  1.00000000E+00  1.00000000E+00  1.00000000E+00  1.00000000E+00  1.00000000E+00
  1.00000000E+00  1.00000000E+00  1.00000000E+00  0.00000000E+00  0.00000000E+00
  0.00000000E+00  1.00000000E+00  0.00000000E+00  0.00000000E+00  0.00000000E+00
  1.00000000E+00  0.00000000E+00  0.00000000E+00  0.00000000E+00  1.00000000E+00
  0.00000000E+00  0.00000000E+00  0.00000000E+00  1.00000000E+00  0.00000000E+00
  0.00000000E+00  0.00000000E+00  1.00000000E+00  0.00000000E+00  0.00000000E+00
  0.00000000E+00
Shell types                                I   N=          24
           0          -1          -1           2           0          -1
          -1           2           0          -1          -1           2
           0           0           0           0           0           0
           0           0           0           0           0           0
Number of primitives per shell             I   N=          24
           6           3           1           1           6           3
           1           1           6           3           1           1
           3           1           3           1           3           1
           3           1           3           1           3           1
Shell to atom map                          I   N=          24
           1           1           1           1           2           2
           2           2           3           3           3           3
           4           4           5           5           6           6
           7           7           8           8           9           9
Primitive exponents                        R   N=          57
  5.48467166E+03  8.25234946E+02  1.88046958E+02  5.29645000E+01  1.68975704E+01
  5.79963534E+00  1.55396162E+01  3.59993359E+00  1.01376175E+00  2.70005823E-01
  8.00000000E-01  3.04752488E+03  4.57369518E+02  1.03948685E+02  2.92101553E+01
  9.28666296E+00  3.16392696E+00  7.86827235E+00  1.88128854E+00  5.44249258E-01
  1.68714478E-01  8.00000000E-01  3.04752488E+03  4.57369518E+02  1.03948685E+02
  2.92101553E+01  9.28666296E+00  3.16392696E+00  7.86827235E+00  1.88128854E+00
  5.44249258E-01  1.68714478E-01  8.00000000E-01  1.87311370E+01  2.82539436E+00
  6.40121692E-01  1.61277759E-01  1.87311370E+01  2.82539436E+00  6.40121692E-01
  1.61277759E-01  1.87311370E+01  2.82539436E+00  6.40121692E-01  1.61277759E-01
  1.87311370E+01  2.82539436E+00  6.40121692E-01  1.61277759E-01  1.87311370E+01
  2.82539436E+00  6.40121692E-01  1.61277759E-01  1.87311370E+01  2.82539436E+00
  6.40121692E-01  1.61277759E-01
Contraction coefficients                   R   N=          57
  1.83107443E-03  1.39501722E-02  6.84450781E-02  2.32714336E-01  4.70192898E-01
  3.58520853E-01 -1.10777550E-01 -1.48026263E-01  1.13076702E+00  1.00000000E+00
  1.00000000E+00  1.83473713E-03  1.40373228E-02  6.88426223E-02  2.32184443E-01
  4.67941348E-01  3.62311985E-01 -1.19332420E-01 -1.60854152E-01  1.14345644E+00
  1.00000000E+00  1.00000000E+00  1.83473713E-03  1.40373228E-02  6.88426223E-02
  2.32184443E-01  4.67941348E-01  3.62311985E-01 -1.19332420E-01 -1.60854152E-01
  1.14345644E+00  1.00000000E+00  1.00000000E+00  3.34946043E-02  2.34726953E-01
  8.13757326E-01  1.00000000E+00  3.34946043E-02  2.34726953E-01  8.13757326E-01
  1.00000000E+00  3.34946043E-02  2.34726953E-01  8.13757326E-01  1.00000000E+00
  3.34946043E-02  2.34726953E-01  8.13757326E-01  1.00000000E+00  3.34946043E-02
  2.34726953E-01  8.13757326E-01  1.00000000E+00  3.34946043E-02  2.34726953E-01
  8.13757326E-01  1.00000000E+00
P(S=P) Contraction coefficients            R   N=          57
  0.00000000E+00  0.00000000E+00  0.00000000E+00  0.00000000E+00  0.00000000E+00
  0.00000000E+00  7.08742682E-02  3.39752839E-01  7.27158577E-01  1.00000000E+00
  0.00000000E+00  0.00000000E+00  0.00000000E+00  0.00000000E+00  0.00000000E+00
  0.00000000E+00  0.00000000E+00  6.89990666E-02  3.16423961E-01  7.44308291E-01
  1.00000000E+00  0.00000000E+00  0.00000000E+00  0.00000000E+00  0.00000000E+00
  0.00000000E+00  0.00000000E+00  0.00000000E+00  6.89990666E-02  3.16423961E-01
  7.44308291E-01  1.00000000E+00  0.00000000E+00  0.00000000E+00  0.00000000E+00
  0.00000000E+00  0.00000000E+00  0.00000000E+00  0.00000000E+00  0.00000000E+00
  0.00000000E+00  0.00000000E+00  0.00000000E+00  0.00000000E+00  0.00000000E+00
  0.00000000E+00  0.00000000E+00  0.00000000E+00  0.00000000E+00  0.00000000E+00
  0.00000000E+00  0.00000000E+00  0.00000000E+00  0.00000000E+00  0.00000000E+00
  0.00000000E+00  0.00000000E+00
Coordinates of each shell                  R   N=          72
  2.34453941E+00 -4.92175887E-01 -2.07782887E-01  2.34453941E+00 -4.92175887E-01
 -2.07782887E-01  2.34453941E+00 -4.92175887E-01 -2.07782887E-01  2.34453941E+00
 -4.92175887E-01 -2.07782887E-01  1.59665952E-01  1.05046340E+00  8.90710129E-02
  1.59665952E-01  1.05046340E+00  8.90710129E-02  1.59665952E-01  1.05046340E+00
  8.90710129E-02  1.59665952E-01  1.05046340E+00  8.90710129E-02 -2.29855676E+00
 -4.52417475E-01 -4.13016448E-02 -2.29855676E+00 -4.52417475E-01 -4.13016448E-02
 -2.29855676E+00 -4.52417475E-01 -4.13016448E-02 -2.29855676E+00 -4.52417475E-01
 -4.13016448E-02  2.45125517E-01  2.13441105E+00  1.86639386E+00  2.45125517E-01
  2.13441105E+00  1.86639386E+00  2.45351689E-01  2.41879520E+00 -1.46068472E+00
  2.45351689E-01  2.41879520E+00 -1.46068472E+00 -3.94371259E+00  8.00731094E-01
  9.47308182E-02 -3.94371259E+00  8.00731094E-01  9.47308182E-02 -2.41240437E+00
 -1.49918662E+00 -1.82257565E+00 -2.41240437E+00 -1.49918662E+00 -1.82257565E+00
 -2.42055926E+00 -1.81754663E+00  1.51668263E+00 -2.42055926E+00 -1.81754663E+00
  1.51668263E+00  2.36322860E+00 -1.68807253E+00  1.18109995E+00  2.36322860E+00
 -1.68807253E+00  1.18109995E+00
Alpha Orbital Energies                     R   N=          57
 -1.91379872E+01 -1.02282480E+01 -1.01778255E+01 -1.00968413E+00 -7.43180595E-01
 -6.20414243E-01 -4.97325267E-01 -4.47443211E-01 -4.26242811E-01 -3.78949007E-01
 -3.67670902E-01 -3.20746338E-01 -2.63038284E-01  7.57585358E-02  1.23279269E-01
  1.45487715E-01  1.56271379E-01  1.67404777E-01  1.90295938E-01  2.21798193E-01
  2.47242129E-01  5.26200449E-01  5.51391734E-01  5.64351982E-01  5.82184135E-01
  6.55347470E-01  6.78835970E-01  8.02942857E-01  8.60699315E-01  8.73912217E-01
  8.92621938E-01  8.97861455E-01  9.47512585E-01  9.84230522E-01  1.02374041E+00
  1.02833440E+00  1.13415211E+00  1.35634803E+00  1.45466415E+00  1.51818544E+00
  1.57090137E+00  1.74380375E+00  1.81092012E+00  1.91134835E+00  1.95455793E+00
  2.08818299E+00  2.14148086E+00  2.20290826E+00  2.28608284E+00  2.36621640E+00
  2.41079713E+00  2.50647865E+00  2.63965372E+00  2.82331387E+00  3.72244282E+00
  4.16624821E+00  4.39258809E+00
Alpha MO coefficients                      R   N=        3249
  9.92798310E-01  2.60287866E-02 -6.21241458E-04 -1.58228118E-04  8.05382774E-04
  1.13163600E-02 -2.96116026E-04  3.10842237E-04 -9.72168103E-05 -7.97487910E-03
 -7.93879281E-03 -7.94909238E-03  3.42244178E-05  3.88508773E-05  5.00925195E-06
  3.34935521E-06  2.17277059E-04  3.02116351E-04 -1.88205458E-04 -1.09306643E-04
 -1.57315317E-03 -1.03520105E-03  3.32408061E-04  5.82050687E-04  2.09136192E-04
  1.05512557E-04  8.19250492E-06 -1.22566753E-04 -2.46790569E-05  3.63390363E-05
  1.53016320E-05  1.22498437E-04  2.54967471E-05  4.83463472E-08  1.83823757E-05
 -3.14088611E-04 -9.93108448E-05 -7.18114852E-05 -2.68536931E-04 -4.01149369E-05
 -7.41877959E-06  4.12034791E-05  4.92977444E-06 -1.60241833E-05 -1.75665701E-05
  1.54115410E-05 -7.92461390E-05  1.37734090E-04  2.38659085E-04  4.30490374E-05
 -8.41195094E-05  2.67760193E-05 -1.29462144E-04 -4.50718168E-06  2.48317398E-04
  4.06410024E-04 -1.09493228E-03 -1.25654999E-04 -2.69789812E-04  1.10283013E-04
 -1.00359548E-04  1.77955391E-05  2.60855468E-03 -4.05868999E-04  2.44038933E-04
 -1.21657624E-04 -5.56534750E-04 -3.91531587E-04 -9.20366518E-05  3.85135569E-04
  7.79410953E-05 -3.75297925E-05  9.93032415E-01  4.91966732E-02  4.09892780E-04
 -3.66754173E-04 -5.04859862E-05 -1.68181002E-02  1.09433416E-03  6.35242733E-04
  2.51775717E-04 -8.86261907E-03 -8.87892840E-03 -8.83690452E-03 -1.58293508E-04
 -1.80280872E-05 -1.06050024E-05  2.03407445E-03 -2.50139700E-04 -1.19736423E-04
 -6.68091129E-05 -1.18593706E-06  4.91217789E-03  2.14240139E-03  1.18020109E-03
  3.27385649E-05 -3.31402579E-04 -2.25586502E-04 -1.46736364E-04 -1.26719413E-04
 -2.39785514E-05 -8.28162068E-06 -2.71226740E-05  2.68190441E-03  2.99346932E-06
  2.85319780E-03 -1.56684449E-04  4.54429393E-05 -2.14516587E-04  6.45967740E-05
 -1.91222145E-04  6.74917598E-05  2.62308919E-06  3.99014255E-04 -3.98780099E-05
 -1.88224775E-04  6.64246810E-05  5.47996549E-06 -1.35326098E-05  4.67793562E-04
 -1.00238868E-04 -2.43091525E-05  9.34867586E-05 -5.18727152E-05 -9.27655942E-05
 -2.05602170E-04  3.01042269E-05 -9.76433588E-06 -1.05064742E-05 -2.28983175E-03
 -3.55780720E-04  9.40619026E-05  1.19153685E-04  8.37817208E-06  4.26562393E-03
 -1.81842588E-03 -1.05578636E-03 -1.01167543E-04 -3.39377582E-04 -2.12314807E-04
 -9.53333559E-05 -1.32352976E-04 -1.95295425E-05 -1.02116766E-05  9.92891150E-01
  5.00158277E-02 -3.50223293E-05 -1.91598104E-05  4.82763524E-05 -1.68358336E-02
 -7.45040838E-04 -4.00361841E-04 -7.04095256E-05 -9.22457277E-03 -9.18115521E-03
 -9.15496370E-03 -6.40510543E-05 -3.41824473E-06 -2.34895014E-06 -1.54059007E-04
  4.52560158E-05 -1.58651776E-04  3.75737268E-05 -7.09858207E-05  2.68794340E-03
 -4.89906515E-05  2.72070455E-03 -6.30627686E-05  2.75533046E-03 -9.36561201E-05
 -6.41718047E-05 -2.01373872E-01  4.47465935E-01 -7.94359698E-02 -7.13440839E-03
  8.42431275E-02  4.28673103E-01 -3.91612256E-02 -3.30048779E-03  4.06079010E-02
  2.43581074E-03  4.06646798E-03  6.77665046E-03 -7.55554410E-03 -5.35384703E-03
 -1.27631025E-02 -7.56156799E-02  1.42951401E-01  7.96037207E-02 -6.23595387E-02
 -6.84143069E-03  5.67942308E-02 -2.43349929E-04 -4.82029753E-04  6.93823156E-03
  8.50592782E-03  2.23152892E-03 -7.05276903E-03 -1.56604189E-02 -1.64102144E-03
  6.24044276E-04 -1.64138428E-02  2.96716301E-02  2.16542258E-02  5.19509724E-03
  7.28517468E-04  1.75120401E-02  6.83904414E-03  7.51804128E-05 -2.04852481E-03
  4.16562293E-03 -2.13471559E-05 -5.86674828E-04  2.24777133E-03  1.44324500E-04
 -7.08818003E-05  2.52155968E-02 -2.44202721E-04  2.64281818E-02  6.36685279E-03
  4.68394268E-03  8.06509305E-05  6.56375879E-03  8.26213297E-04  6.38374677E-03
  4.98061472E-03  1.29563489E-01  7.02295456E-04  5.53854900E-02 -1.26576090E-01
 -5.77767312E-02  6.62092670E-02 -4.41946245E-02 -1.50776386E-01 -2.72223146E-02
  3.25315470E-02 -2.19539257E-02  9.09748165E-03 -1.36219364E-03 -5.54729866E-03
 -3.77812291E-03 -1.79783134E-03  7.57113798E-03 -1.21173086E-01  2.39596423E-01
 -1.03252671E-01 -4.13174149E-03 -5.16085924E-03  1.98297799E-01 -3.00330938E-02
  4.51793591E-03  5.14000147E-03 -2.19981661E-03 -2.79358183E-03 -1.67336788E-04
  1.17803973E-02  6.93889830E-05 -2.38976446E-04 -1.60021914E-01  3.06076284E-01
  3.55366423E-02  3.02388844E-02  3.98738355E-03  2.64099705E-01 -1.14820940E-03
  4.58361165E-03  3.58206711E-04  1.22472133E-03  7.21109341E-04 -7.60877589E-04
  1.87476144E-03  7.09522163E-05  2.87907305E-05  7.30005571E-02  1.23671808E-02
  7.63599126E-02  1.73675937E-02  9.86029849E-02  1.99774677E-02  9.36359151E-02
  1.85610277E-02  9.50088754E-02  2.15968616E-02 -6.93267177E-02 -1.32306263E-02
  2.82739214E-02 -6.53579720E-02 -1.02826666E-01  1.97017940E-01 -8.12868024E-02
 -8.54963525E-02 -4.96680994E-02  9.57413342E-02 -3.81412748E-02  9.35298747E-03
 -6.30671714E-04 -8.26786587E-03 -1.03328291E-02 -1.82991776E-03  1.26440891E-02
 -1.26365068E-01  2.61728079E-01  9.20251576E-02  1.03917526E-01 -2.02555794E-02
  2.47093717E-01  1.39774757E-02  4.03433975E-02 -1.85056350E-03 -1.11331097E-02
 -4.88524478E-03  6.08098608E-03 -5.92738286E-03 -3.57359331E-03 -3.07954791E-04
  1.10673683E-01 -2.16485832E-01  9.32421209E-02  7.28244041E-02 -2.85183920E-03
 -2.30290908E-01  2.53885846E-02  2.41075123E-02 -2.36812066E-03  8.20303219E-03
  6.37242100E-04 -5.06178291E-03  1.03657679E-02  3.47161201E-04  8.42930574E-04
  1.11931442E-01  3.97174518E-02  1.31643310E-01  4.85383230E-02 -9.61482151E-02
 -3.93392206E-02 -9.95035385E-02 -3.64070732E-02 -1.08269779E-01 -4.44033968E-02
 -1.19900692E-01 -5.05699459E-02  3.72723947E-02 -8.47056241E-02  1.18763265E-01
 -2.23233811E-01  2.63334740E-01 -1.36022710E-01  5.39704396E-02 -1.06440022E-01
  1.43242885E-01 -7.95701698E-03  3.17519802E-03  1.90897905E-02  5.22179302E-03
 -7.19783390E-03 -1.00526368E-02 -3.59304675E-02  7.07778685E-02 -1.48678179E-01
  1.26526706E-01  2.47721702E-01  9.02553783E-02 -6.00450071E-02  3.70731273E-02
  1.08729014E-01 -1.47115446E-02  1.44198623E-04  1.04006430E-02  9.71269615E-03
  8.61454345E-03  1.87618604E-03  1.94521548E-02 -3.75066509E-02  4.17068912E-02
  9.76759038E-02  1.21518062E-01 -6.34757142E-02  1.18670147E-02  3.83395187E-02
  4.61511148E-02  1.77315683E-03  2.70203426E-03 -5.45941861E-03  3.43710258E-03
  4.46768725E-03 -1.92614492E-03  1.74215773E-01  1.10225481E-01 -1.92818782E-02
 -1.08051911E-02  6.25915332E-04  3.44160186E-03 -1.00382660E-01 -6.45110588E-02
 -1.72482326E-03  9.22462677E-03  1.75857743E-01  1.11140060E-01 -2.34231928E-02
  4.42514861E-02  2.29623317E-01 -1.56354949E-01 -3.97465098E-02  1.07687686E-01
  1.29353445E-01 -8.41549078E-02 -2.40418373E-02 -1.43994555E-02  6.17404862E-03
 -7.06281058E-04  2.09350478E-04  1.38208229E-02 -1.15698082E-02  4.98543131E-03
 -9.44504741E-03 -1.28004523E-01  2.28755744E-01 -2.02631956E-01 -1.97068215E-02
 -4.79436918E-02  1.05327290E-01 -1.00787041E-01 -5.72089497E-03 -5.98709063E-04
  9.85306332E-03  7.68891055E-03  4.66122160E-03 -1.05317907E-02  1.91641395E-04
 -2.46671476E-03 -1.07009754E-01  1.81800773E-01 -1.81132883E-01  6.87124827E-03
 -4.24894020E-02  8.07189811E-02 -7.99360090E-02  2.48047185E-03  2.98658596E-03
 -5.73876321E-03 -4.01192880E-03 -3.70265287E-03  8.64221730E-03 -3.73376796E-02
 -2.19007130E-02  1.69106229E-01  1.18263183E-01  1.08130346E-01  8.35146908E-02
  4.07140492E-02  3.24423910E-02 -1.47993821E-01 -1.14444498E-01  6.47307274E-02
  4.65039867E-02  3.52109495E-02 -7.88066178E-02 -1.35651305E-01 -2.31714361E-01
  4.40874131E-02 -1.37574283E-01 -9.63494478E-02 -1.37082218E-01  2.03816782E-02
  1.22237635E-02 -1.23126458E-03  1.33353665E-03  9.00233584E-03 -4.82399958E-03
 -1.10147515E-02 -3.12177430E-02  7.03972603E-02 -1.95730498E-01 -1.74671228E-01
 -1.22122185E-01  7.00802180E-02 -8.77334285E-02 -6.96043318E-02 -3.84384579E-02
 -1.05947533E-02  7.71970486E-03 -5.61375258E-03  7.35926333E-03  5.98345700E-03
 -4.27012545E-03  7.47761206E-03 -1.22856294E-02  3.18441882E-01 -4.23382137E-03
 -1.50300760E-01 -2.69188337E-02  1.47407615E-01 -1.45965282E-02 -7.77180334E-02
  3.91924423E-04 -5.64706208E-03 -1.11135403E-04  1.40305512E-02  6.55547083E-04
  5.63269998E-03 -8.71778887E-02 -8.62275901E-02  1.64095176E-02  9.25153875E-03
 -1.71658716E-01 -1.29592646E-01  6.10961441E-02  4.25208787E-02 -8.64489136E-02
 -6.01896487E-02  8.58855233E-02  6.13720929E-02 -2.35518963E-02  4.73763208E-02
 -7.87577030E-02 -4.32184906E-02 -1.77462230E-01  1.20370366E-01 -5.50326995E-02
 -2.97760202E-02 -1.11670518E-01  6.14282463E-03 -5.11169525E-03 -1.41553178E-02
  2.13439217E-03  2.28698739E-03 -1.45911860E-03 -2.87847853E-04  6.82770790E-03
 -1.52856565E-01 -1.87737301E-01 -6.80139550E-02 -1.87668631E-02 -7.34050740E-02
 -7.00872404E-02 -4.14990983E-02  1.11784218E-02 -4.65556746E-03 -1.11217722E-02
 -2.36170328E-03 -1.05439707E-02 -2.12391376E-03 -5.50755271E-03  1.16930640E-02
  3.64149550E-02  3.11905984E-01  2.41490437E-01  2.06911691E-02  2.97240369E-02
  1.45387753E-01  1.28718883E-01  1.57872830E-02 -2.00499820E-03 -1.88869525E-02
 -5.20279549E-03 -3.37588332E-03 -1.10680100E-02 -1.06100051E-01 -9.60687518E-02
 -5.36349605E-02 -5.04783728E-02  1.26811974E-01  1.17097961E-01 -2.41294838E-01
 -2.00533951E-01 -1.44271328E-02 -2.23663806E-02 -5.48559197E-02 -5.06680949E-02
 -2.09533845E-02  4.02758293E-02  2.10749996E-01 -1.14368572E-01 -1.77219184E-01
  8.53559059E-02  1.33423169E-01 -7.32827847E-02 -1.22279603E-01 -7.82137060E-03
  6.85516600E-03 -8.84411538E-03  8.46094408E-04  1.46092424E-02 -6.71035513E-03
  1.28436669E-03 -2.74069840E-03 -8.76399723E-02  1.64053723E-01 -1.39570343E-01
 -8.00076700E-03 -1.81774906E-02  7.97084581E-02 -8.54977567E-02 -1.36840279E-02
  6.51327601E-03  9.42454500E-03  1.34946395E-02 -8.79280408E-03 -1.21310019E-02
  2.22022749E-03 -7.58470712E-03  1.15115920E-01 -2.11511708E-01  2.40818718E-01
  2.50207345E-03  6.77110670E-02 -9.78659595E-02  1.27504845E-01 -1.24444101E-02
  5.28912594E-03  6.78945581E-03  1.11385221E-02 -3.70527756E-03 -1.90547754E-02
 -2.35273754E-02 -1.68405352E-02  1.44650674E-01  1.25302407E-01 -1.48036584E-01
 -1.33598207E-01 -7.56275710E-02 -5.62475707E-02  2.20845436E-01  2.04047792E-01
 -4.74843380E-03  2.62821030E-02  5.67767867E-02 -1.10485911E-01 -2.79827327E-01
 -5.02308314E-02  3.04109550E-01 -2.75704219E-01 -2.00649279E-01 -2.37495411E-02
  2.04998928E-01  1.10654288E-02  4.98306652E-03  1.93124491E-02  1.73850373E-03
 -1.43249534E-02 -9.76482695E-03 -6.67833640E-03  1.42096446E-02  1.70321512E-01
  4.26992405E-02 -2.52000062E-01  1.90921665E-02  3.37866943E-02  1.46403248E-02
 -6.75520289E-02 -5.07783195E-03  9.31688394E-03 -4.09427301E-03 -1.14560933E-02
  3.77743289E-03 -2.52798216E-02  1.57941288E-02 -3.07525020E-02 -1.58614543E-01
 -3.60072225E-02  1.17295950E-01 -8.39452807E-02 -8.25158690E-02 -3.46943789E-02
  2.31403228E-02  3.30224145E-03  2.29121584E-03 -1.33423841E-03 -7.15051841E-03
 -7.31429464E-03 -1.35673044E-02 -1.37712402E-01 -1.65978130E-01  1.80463357E-01
  1.93420208E-01  7.01498405E-02  8.48177071E-02 -7.98341093E-02 -1.02044119E-01
  8.25622896E-02  1.19144336E-01  1.34516241E-01  1.12511016E-01  1.31175144E-03
  3.54428363E-03  3.17834128E-01  3.72445770E-01  3.19862345E-01 -3.45284631E-02
  2.55515730E-01  2.82532779E-01  2.46385700E-01 -1.04228229E-02 -5.33092723E-03
  2.14946685E-02 -1.14012960E-02  4.33452191E-03  8.62575503E-03 -3.14892265E-03
  1.05589792E-02 -1.01565354E-01 -1.09219879E-01 -1.06358576E-01  1.30896285E-02
  1.75338537E-02 -4.54226957E-02 -1.40979665E-02  2.40479884E-02 -1.44222139E-02
 -1.17919617E-02  9.98342654E-03  8.36400065E-03 -1.66561287E-02 -2.95594903E-02
  6.33294779E-02  1.81354373E-01  7.12680485E-02  2.64357532E-02  1.72166503E-01
  6.67041002E-02  9.44280421E-02 -8.38861790E-03 -1.30733713E-03 -6.47910270E-04
 -2.62748164E-03  7.26789389E-03 -7.95649278E-04 -4.33430393E-03 -1.46326181E-01
 -1.88953030E-01  8.05770882E-03  1.56417983E-02 -5.07616792E-02 -1.13640820E-01
 -2.76215687E-02 -8.01721296E-02  9.23826844E-03  5.95893196E-03  2.34075220E-03
  1.90272530E-03  7.56473176E-02 -1.00827583E-01  6.19268086E-02  1.51632199E-01
 -1.90581491E-01 -9.21985706E-01  1.03848611E-01  2.66524536E-01 -3.37933681E-01
  3.08889701E-02  2.95715276E-02  2.42188778E-02 -2.68378723E-05  9.05383970E-03
  1.00860970E-02  3.21566515E-02 -3.25100786E-02  8.90858441E-02 -1.39248418E-01
 -5.75343424E-02 -6.14529225E-01  2.10899859E-01 -3.68373188E-01 -1.07832963E-01
  1.54411621E-03 -2.82493654E-03  1.40394571E-02  6.09767298E-03 -1.75094750E-03
 -2.03544348E-04  5.26691259E-02 -6.54745735E-02  7.13803738E-02  7.05850223E-02
 -5.53951485E-02 -7.72743042E-01  2.67108362E-01  2.77186252E-01 -1.09837657E-01
  1.04640461E-02 -1.72619953E-03  4.61754115E-03 -1.07919803E-02  1.33390969E-03
 -3.10983063E-04  8.61194786E-03  5.41835696E-01 -1.22992955E-02  2.89073130E-01
  5.39747441E-02  4.63885801E-01 -1.12357604E-02  2.71565636E-01 -1.73831329E-02
  5.67320037E-01  1.03563710E-01  1.14146399E+00  6.06312398E-02 -5.95077149E-02
  4.24394365E-02 -2.42008918E-03 -1.49437877E-01 -8.11871353E-01  1.28934389E-01
 -2.80674909E-02 -2.33912853E-01  3.06767620E-02  3.76921513E-02  2.08177639E-02
 -3.81468372E-03  7.29802239E-03  9.58258957E-04 -7.05138759E-02  1.16512228E-01
  1.24047921E-01  7.50226471E-02 -4.07693171E-02  1.01985898E+00  4.20214148E-01
  3.10896401E-01 -1.31122481E-01 -2.71873989E-03 -2.53894181E-03 -6.90402033E-04
  1.24323504E-02 -1.31653777E-03  2.48574154E-03 -1.00512569E-01  1.22621267E-01
 -1.23277677E-01 -3.96927471E-02 -4.68249088E-02  1.71532792E+00 -2.88472160E-01
 -2.41757929E-01 -1.02628084E-01  3.28452225E-03 -9.29454389E-03 -1.51216653E-02