 Entering Gaussian System, Link 0=g03
 Initial command:
 /opt/gaussian/g03_D1_amd64/g03/l1.exe /home/toon/unief/research/code/work/hipart/examples/004-grid-tuning/Gau-12794.inp -scrdir=/home/toon/unief/research/code/work/hipart/examples/004-grid-tuning/
 Entering Link 1 = /opt/gaussian/g03_D1_amd64/g03/l1.exe PID=     12796.
  
 Copyright (c) 1988,1990,1992,1993,1995,1998,2003,2004, Gaussian, Inc.
                  All Rights Reserved.
  
 This is the Gaussian(R) 03 program.  It is based on the
 the Gaussian(R) 98 system (copyright 1998, Gaussian, Inc.),
 the Gaussian(R) 94 system (copyright 1995, Gaussian, Inc.),
 the Gaussian 92(TM) system (copyright 1992, Gaussian, Inc.),
 the Gaussian 90(TM) system (copyright 1990, Gaussian, Inc.),
 the Gaussian 88(TM) system (copyright 1988, Gaussian, Inc.),
 the Gaussian 86(TM) system (copyright 1986, Carnegie Mellon
 University), and the Gaussian 82(TM) system (copyright 1983,
 Carnegie Mellon University). Gaussian is a federally registered
 trademark of Gaussian, Inc.
  
 This software contains proprietary and confidential information,
 including trade secrets, belonging to Gaussian, Inc.
  
 This software is provided under written license and may be
 used, copied, transmitted, or stored only in accord with that
 written license.
  
 The following legend is applicable only to US Government
 contracts under FAR:
  
                    RESTRICTED RIGHTS LEGEND
  
 Use, reproduction and disclosure by the US Government is
 subject to restrictions as set forth in subparagraphs (a)
 and (c) of the Commercial Computer Software - Restricted
 Rights clause in FAR 52.227-19.
  
 Gaussian, Inc.
 340 Quinnipiac St., Bldg. 40, Wallingford CT 06492
  
  
 ---------------------------------------------------------------
 Warning -- This program may not be used in any manner that
 competes with the business of Gaussian, Inc. or will provide
 assistance to any competitor of Gaussian, Inc.  The licensee
 of this program is prohibited from giving any competitor of
 Gaussian, Inc. access to this program.  By using this program,
 the user acknowledges that Gaussian, Inc. is engaged in the
 business of creating and licensing software in the field of
 computational chemistry and represents and warrants to the
 licensee that it is not a competitor of Gaussian, Inc. and that
 it will not use this program in any manner prohibited above.
 ---------------------------------------------------------------
  

 Cite this work as:
 Gaussian 03, Revision D.01,
 M. J. Frisch, G. W. Trucks, H. B. Schlegel, G. E. Scuseria, 
 M. A. Robb, J. R. Cheeseman, J. A. Montgomery, Jr., T. Vreven, 
 K. N. Kudin, J. C. Burant, J. M. Millam, S. S. Iyengar, J. Tomasi, 
 V. Barone, B. Mennucci, M. Cossi, G. Scalmani, N. Rega, 
 G. A. Petersson, H. Nakatsuji, M. Hada, M. Ehara, K. Toyota, 
 R. Fukuda, J. Hasegawa, M. Ishida, T. Nakajima, Y. Honda, O. Kitao, 
 H. Nakai, M. Klene, X. Li, J. E. Knox, H. P. Hratchian, J. B. Cross, 
 V. Bakken, C. Adamo, J. Jaramillo, R. Gomperts, R. E. Stratmann, 
 O. Yazyev, A. J. Austin, R. Cammi, C. Pomelli, J. W. Ochterski, 
 P. Y. Ayala, K. Morokuma, G. A. Voth, P. Salvador, J. J. Dannenberg, 
 V. G. Zakrzewski, S. Dapprich, A. D. Daniels, M. C. Strain, 
 O. Farkas, D. K. Malick, A. D. Rabuck, K. Raghavachari, 
 J. B. Foresman, J. V. Ortiz, Q. Cui, A. G. Baboul, S. Clifford, 
 J. Cioslowski, B. B. Stefanov, G. Liu, A. Liashenko, P. Piskorz, 
 I. Komaromi, R. L. Martin, D. J. Fox, T. Keith, M. A. Al-Laham, 
 C. Y. Peng, A. Nanayakkara, M. Challacombe, P. M. W. Gill, 
 B. Johnson, W. Chen, M. W. Wong, C. Gonzalez, and J. A. Pople, 
 Gaussian, Inc., Wallingford CT, 2004.
 
 ******************************************
 Gaussian 03:  AM64L-G03RevD.01 13-Oct-2005
                10-Aug-2010 
 ******************************************
 %mem=500MB
 %chk=formaldehyde.chk
 %nproc=1
 Will use up to    1 processors via shared memory.
 ------------------------------------------------------
 #p B3LYP/6-31G(d) sp scf(fermi,tight) density(current)
 ------------------------------------------------------
 1/30=1,38=1/1;
 2/17=6,18=5,40=1/2;
 3/5=1,6=6,7=1,11=2,16=1,25=1,30=1,74=-5/1,2,3;
 4//1;
 5/5=2,22=13,32=2,38=5/2;
 6/7=2,8=2,9=2,10=2,22=-1,28=1/1;
 99/5=1,9=1/99;
 Leave Link    1 at Tue Aug 10 10:24:46 2010, MaxMem=   65536000 cpu:       0.1
 (Enter /opt/gaussian/g03_D1_amd64/g03/l101.exe)
 ------------
 formaldehyde
 ------------
 Symbolic Z-matrix:
 Charge =  0 Multiplicity = 1
 O                     0.67745  0.         0. 
 C                    -0.5291    0.       -0.00001 
 H                    -1.12251   0.93819   0.00002 
 H                    -1.12251  -0.93819   0.00002 
 
                    Isotopes and Nuclear Properties:
 (Nuclear quadrupole moments (NQMom) in fm**2, nuclear magnetic moments (NMagM)
  in nuclear magnetons)

  Atom         1           2           3           4
 IAtWgt=          16          12           1           1
 AtmWgt=  15.9949146  12.0000000   1.0078250   1.0078250
 NucSpn=           0           0           1           1
 AtZEff=   0.0000000   0.0000000   0.0000000   0.0000000
 NQMom=    0.0000000   0.0000000   0.0000000   0.0000000
 NMagM=    0.0000000   0.0000000   2.7928460   2.7928460
 Leave Link  101 at Tue Aug 10 10:24:46 2010, MaxMem=   65536000 cpu:       0.0
 (Enter /opt/gaussian/g03_D1_amd64/g03/l202.exe)
                          Input orientation:                          
 ---------------------------------------------------------------------
 Center     Atomic     Atomic              Coordinates (Angstroms)
 Number     Number      Type              X           Y           Z
 ---------------------------------------------------------------------
    1          8             0        0.677450    0.000000    0.000002
    2          6             0       -0.529096    0.000000   -0.000008
    3          1             0       -1.122510    0.938193    0.000016
    4          1             0       -1.122511   -0.938192    0.000016
 ---------------------------------------------------------------------
                    Distance matrix (angstroms):
                    1          2          3          4
     1  O    0.000000
     2  C    1.206545   0.000000
     3  H    2.029793   1.110111   0.000000
     4  H    2.029794   1.110111   1.876385   0.000000
 Stoichiometry    CH2O
 Framework group  CS[SG(CO),X(H2)]
 Deg. of freedom     4
 Full point group                 CS
 Largest Abelian subgroup         CS      NOp   2
 Largest concise Abelian subgroup CS      NOp   2
                         Standard orientation:                         
 ---------------------------------------------------------------------
 Center     Atomic     Atomic              Coordinates (Angstroms)
 Number     Number      Type              X           Y           Z
 ---------------------------------------------------------------------
    1          8             0       -0.000004    0.677450    0.000000
    2          6             0       -0.000004   -0.529096    0.000000
    3          1             0        0.000025   -1.122510    0.938193
    4          1             0        0.000025   -1.122510   -0.938193
 ---------------------------------------------------------------------
 Rotational constants (GHZ):    284.8511851     38.6524783     34.0342491
 Leave Link  202 at Tue Aug 10 10:24:47 2010, MaxMem=   65536000 cpu:       0.0
 (Enter /opt/gaussian/g03_D1_amd64/g03/l301.exe)
 Standard basis: 6-31G(d) (6D, 7F)
 There are    24 symmetry adapted basis functions of A'  symmetry.
 There are    10 symmetry adapted basis functions of A"  symmetry.
 Integral buffers will be    131072 words long.
 Raffenetti 2 integral format.
 Two-electron integral symmetry is turned on.
    34 basis functions,    64 primitive gaussians,    34 cartesian basis functions
     8 alpha electrons        8 beta electrons
       nuclear repulsion energy        31.2258206842 Hartrees.
 IExCor= 402 DFT=T Ex=B+HF Corr=LYP ExCW=0 ScaHFX=  0.200000
 ScaDFX=  0.800000  0.720000  1.000000  0.810000
 IRadAn=      0 IRanWt=     -1 IRanGd=            0 ICorTp=0
 NAtoms=    4 NActive=    4 NUniq=    3 SFac= 1.33D+00 NAtFMM=   80 NAOKFM=F Big=F
 Leave Link  301 at Tue Aug 10 10:24:47 2010, MaxMem=   65536000 cpu:       0.0
 (Enter /opt/gaussian/g03_D1_amd64/g03/l302.exe)
 NPDir=0 NMtPBC=     1 NCelOv=     1 NCel=       1 NClECP=     1 NCelD=      1
         NCelK=      1 NCelE2=     1 NClLst=     1 CellRange=     0.0.
 One-electron integrals computed using PRISM.
 One-electron integral symmetry used in STVInt
 NBasis=    34 RedAO= T  NBF=    24    10
 NBsUse=    34 1.00D-06 NBFU=    24    10
 Precomputing XC quadrature grid using
 IXCGrd= 2 IRadAn=           0 IRanWt=          -1 IRanGd=           0.
 NRdTot=     243 NPtTot=       30822 NUsed=       32540 NTot=       32572
 NSgBfM=    34    34    34    34.
 Leave Link  302 at Tue Aug 10 10:24:48 2010, MaxMem=   65536000 cpu:       0.1
 (Enter /opt/gaussian/g03_D1_amd64/g03/l303.exe)
 DipDrv:  MaxL=1.
 Leave Link  303 at Tue Aug 10 10:24:48 2010, MaxMem=   65536000 cpu:       0.0
 (Enter /opt/gaussian/g03_D1_amd64/g03/l401.exe)
 Harris functional with IExCor=  402 diagonalized for initial guess.
 ExpMin= 1.61D-01 ExpMax= 5.48D+03 ExpMxC= 8.25D+02 IAcc=1 IRadAn=         1 AccDes= 1.00D-06
 HarFok:  IExCor= 402 AccDes= 1.00D-06 IRadAn=         1 IDoV=1
 ScaDFX=  1.000000  1.000000  1.000000  1.000000
 Harris En= -114.526502402048    
 Initial guess orbital symmetries:
       Occupied  (A') (A') (A') (A') (A") (A') (A') (A")
       Virtual   (A') (A') (A") (A') (A') (A') (A") (A') (A") (A')
                 (A') (A') (A") (A') (A') (A") (A') (A") (A") (A')
                 (A') (A') (A") (A') (A') (A')
 The electronic state of the initial guess is 1-A'.
 Leave Link  401 at Tue Aug 10 10:24:48 2010, MaxMem=   65536000 cpu:       0.0
 (Enter /opt/gaussian/g03_D1_amd64/g03/l502.exe)
 Closed shell SCF:
 Requested convergence on RMS density matrix=1.00D-08 within 128 cycles.
 Requested convergence on MAX density matrix=1.00D-06.
 Requested convergence on             energy=1.00D-06.
 Level shift goal  0.100 maximum shift  0.100.
 No special actions if energy rises.
 Dynamic level shift is on during FON iterations.
 Using DIIS extrapolation, IDIIS=    10.
 Integral symmetry usage will be decided dynamically.
        32539 words used for storage of precomputed grid.
 Keep R1 integrals in memory in canonical form, NReq=     1910052.
 IEnd=     54150 IEndB=     54150 NGot=  65536000 MDV=  65322357
 LenX=  65322357
 Symmetry not used in FoFDir.
 MinBra= 0 MaxBra= 2 Meth= 1.
 IRaf=       0 NMat=   1 IRICut=       1 DoRegI=T DoRafI=F ISym2E= 0 JSym2E=0.
 Integral accuracy reduced to 1.0D-05 until final iterations.

 Cycle   1  Pass 0  IDiag  1:
 E= -114.440062667913    
 DIIS: error= 4.90D-02 at cycle   1 NSaved=   1.
 NSaved= 1 IEnMin= 1 EnMin= -114.440062667913     IErMin= 1 ErrMin= 4.90D-02
 ErrMax= 4.90D-02 EMaxC= 1.00D+00 BMatC= 7.27D-02 BMatP= 7.27D-02
 IDIUse=1 WtCom= 1.00D+00 WtEn= 0.00D+00
 Coeff-Com:  0.100D+01
 Coeff:      0.100D+01
 Gap=     0.180 Goal=     0.100 Shift=    0.000
 T= 1790. Gap= 0.181 NK=0 IS=    1 IE=   34
          NO(<0.9)=   0  NV(>0.1)=   0   8.00e < EF 0.00e >EF  Err=9.7D-12
 GapD=    0.180 DampG=1.000 DampE=0.500 DampFc=0.5000 IDamp=-1.
 Damping current iteration by 5.00D-01
 RMSDP=2.02D-02 MaxDP=1.85D-01              OVMax= 2.84D-01

 Cycle   2  Pass 0  IDiag  1:
 E= -114.442367614022     Delta-E=       -0.002304946109 Rises=F Damp=T
 DIIS: error= 3.02D-02 at cycle   2 NSaved=   2.
 NSaved= 2 IEnMin= 2 EnMin= -114.442367614022     IErMin= 2 ErrMin= 3.02D-02
 ErrMax= 3.02D-02 EMaxC= 1.00D+00 BMatC= 2.07D-02 BMatP= 7.27D-02
 IDIUse=1 WtCom= 1.00D+00 WtEn= 0.00D+00
 Coeff-Com:  0.324D+00 0.676D+00
 Coeff:      0.324D+00 0.676D+00
 Gap=     0.224 Goal=     0.100 Shift=    0.000
 T= 1708. Gap= 0.235 NK=0 IS=    1 IE=   34
          NO(<0.9)=   0  NV(>0.1)=   0   8.00e < EF 0.00e >EF  Err=1.9D-13
 GapD=    0.224 DampG=1.000 DampE=0.500 DampFc=0.5000 IDamp=-1.
 Damping current iteration by 5.00D-01
 RMSDP=5.18D-03 MaxDP=4.08D-02 DE=-2.30D-03 OVMax= 2.23D-01

 Cycle   3  Pass 0  IDiag  1:
 E= -114.474970014343     Delta-E=       -0.032602400321 Rises=F Damp=T
 DIIS: error= 6.79D-03 at cycle   3 NSaved=   3.
 NSaved= 3 IEnMin= 3 EnMin= -114.474970014343     IErMin= 3 ErrMin= 6.79D-03
 ErrMax= 6.79D-03 EMaxC= 1.00D+00 BMatC= 2.27D-03 BMatP= 2.07D-02
 IDIUse=1 WtCom= 1.00D+00 WtEn= 0.00D+00
 Coeff-Com:  0.999D-01-0.146D+00 0.105D+01
 Coeff:      0.999D-01-0.146D+00 0.105D+01
 Gap=     0.224 Goal=     0.100 Shift=    0.000
 T= 1469. Gap= 0.224 NK=0 IS=    1 IE=   34
          NO(<0.9)=   0  NV(>0.1)=   0   8.00e < EF 0.00e >EF  Err=2.1D-11
 GapD=    0.224 DampG=1.000 DampE=1.000 DampFc=1.0000 IDamp=-1.
 RMSDP=2.12D-03 MaxDP=1.90D-02 DE=-3.26D-02 OVMax= 3.35D-02

 Cycle   4  Pass 0  IDiag  1:
 E= -114.500416704504     Delta-E=       -0.025446690161 Rises=F Damp=F
 DIIS: error= 1.31D-03 at cycle   4 NSaved=   4.
 NSaved= 4 IEnMin= 4 EnMin= -114.500416704504     IErMin= 4 ErrMin= 1.31D-03
 ErrMax= 1.31D-03 EMaxC= 1.00D+00 BMatC= 6.18D-05 BMatP= 2.27D-03
 IDIUse=1 WtCom= 1.00D+00 WtEn= 0.00D+00
 Coeff-Com:  0.210D-03-0.789D-01 0.243D+00 0.835D+00
 Coeff:      0.210D-03-0.789D-01 0.243D+00 0.835D+00
 Gap=     0.226 Goal=     0.100 Shift=    0.000
 T=  984. Gap= 0.226 NK=0 IS=    1 IE=   34
          NO(<0.9)=   0  NV(>0.1)=   0   8.00e < EF 0.00e >EF  Err=1.4D-13
 GapD=    0.226 DampG=1.000 DampE=1.000 DampFc=1.0000 IDamp=-1.
 RMSDP=2.27D-04 MaxDP=2.73D-03 DE=-2.54D-02 OVMax= 2.94D-03

 Cycle   5  Pass 0  IDiag  1:
 E= -114.500475275131     Delta-E=       -0.000058570627 Rises=F Damp=F
 DIIS: error= 2.86D-04 at cycle   5 NSaved=   5.
 NSaved= 5 IEnMin= 5 EnMin= -114.500475275131     IErMin= 5 ErrMin= 2.86D-04
 ErrMax= 2.86D-04 EMaxC= 1.00D+00 BMatC= 2.64D-06 BMatP= 6.18D-05
 IDIUse=1 WtCom= 1.00D+00 WtEn= 0.00D+00
 Coeff-Com:  0.913D-04-0.173D-01 0.263D-01 0.139D+00 0.852D+00
 Coeff:      0.913D-04-0.173D-01 0.263D-01 0.139D+00 0.852D+00
 Gap=     0.226 Goal=     0.100 Shift=    0.000
 RMSDP=5.46D-05 MaxDP=4.21D-04 DE=-5.86D-05 OVMax= 4.81D-04

 Cycle   6  Pass 0  IDiag  1:
 E= -114.500477576140     Delta-E=       -0.000002301009 Rises=F Damp=F
 DIIS: error= 4.63D-05 at cycle   6 NSaved=   6.
 NSaved= 6 IEnMin= 6 EnMin= -114.500477576140     IErMin= 6 ErrMin= 4.63D-05
 ErrMax= 4.63D-05 EMaxC= 1.00D+00 BMatC= 5.46D-08 BMatP= 2.64D-06
 IDIUse=1 WtCom= 1.00D+00 WtEn= 0.00D+00
 Coeff-Com:  0.311D-03-0.126D-02 0.434D-03-0.411D-02 0.561D-02 0.999D+00
 Coeff:      0.311D-03-0.126D-02 0.434D-03-0.411D-02 0.561D-02 0.999D+00
 Gap=     0.226 Goal=     0.100 Shift=    0.000
 RMSDP=8.97D-06 MaxDP=7.32D-05 DE=-2.30D-06 OVMax= 8.76D-05

 Initial convergence to 1.0D-05 achieved.  Increase integral accuracy.
 Cycle   7  Pass 1  IDiag  1:
 E= -114.500472027835     Delta-E=        0.000005548305 Rises=F Damp=F
 DIIS: error= 7.34D-06 at cycle   1 NSaved=   1.
 NSaved= 1 IEnMin= 1 EnMin= -114.500472027835     IErMin= 1 ErrMin= 7.34D-06
 ErrMax= 7.34D-06 EMaxC= 1.00D+00 BMatC= 1.04D-09 BMatP= 1.04D-09
 IDIUse=1 WtCom= 1.00D+00 WtEn= 0.00D+00
 Coeff-Com:  0.100D+01
 Coeff:      0.100D+01
 Gap=     0.226 Goal=   None    Shift=    0.000
 RMSDP=8.97D-06 MaxDP=7.32D-05 DE= 5.55D-06 OVMax= 2.80D-05

 Cycle   8  Pass 1  IDiag  1:
 E= -114.500472028808     Delta-E=       -0.000000000974 Rises=F Damp=F
 DIIS: error= 6.90D-06 at cycle   2 NSaved=   2.
 NSaved= 2 IEnMin= 2 EnMin= -114.500472028808     IErMin= 2 ErrMin= 6.90D-06
 ErrMax= 6.90D-06 EMaxC= 1.00D+00 BMatC= 8.22D-10 BMatP= 1.04D-09
 IDIUse=1 WtCom= 1.00D+00 WtEn= 0.00D+00
 Coeff-Com:  0.454D+00 0.546D+00
 Coeff:      0.454D+00 0.546D+00
 Gap=     0.226 Goal=   None    Shift=    0.000
 RMSDP=9.48D-07 MaxDP=1.24D-05 DE=-9.74D-10 OVMax= 2.20D-05

 Cycle   9  Pass 1  IDiag  1:
 E= -114.500472029097     Delta-E=       -0.000000000288 Rises=F Damp=F
 DIIS: error= 5.05D-06 at cycle   3 NSaved=   3.
 NSaved= 3 IEnMin= 3 EnMin= -114.500472029097     IErMin= 3 ErrMin= 5.05D-06
 ErrMax= 5.05D-06 EMaxC= 1.00D+00 BMatC= 5.18D-10 BMatP= 8.22D-10
 IDIUse=1 WtCom= 1.00D+00 WtEn= 0.00D+00
 Coeff-Com: -0.564D-02 0.443D+00 0.563D+00
 Coeff:     -0.564D-02 0.443D+00 0.563D+00
 Gap=     0.226 Goal=   None    Shift=    0.000
 RMSDP=4.54D-07 MaxDP=5.13D-06 DE=-2.88D-10 OVMax= 8.35D-06

 Cycle  10  Pass 1  IDiag  1:
 E= -114.500472029483     Delta-E=       -0.000000000386 Rises=F Damp=F
 DIIS: error= 3.07D-07 at cycle   4 NSaved=   4.
 NSaved= 4 IEnMin= 4 EnMin= -114.500472029483     IErMin= 4 ErrMin= 3.07D-07
 ErrMax= 3.07D-07 EMaxC= 1.00D+00 BMatC= 2.75D-12 BMatP= 5.18D-10
 IDIUse=1 WtCom= 1.00D+00 WtEn= 0.00D+00
 Coeff-Com: -0.144D-01 0.145D+00 0.168D+00 0.701D+00
 Coeff:     -0.144D-01 0.145D+00 0.168D+00 0.701D+00
 Gap=     0.226 Goal=   None    Shift=    0.000
 RMSDP=5.14D-08 MaxDP=5.99D-07 DE=-3.86D-10 OVMax= 5.69D-07

 Cycle  11  Pass 1  IDiag  1:
 E= -114.500472029485     Delta-E=       -0.000000000003 Rises=F Damp=F
 DIIS: error= 7.97D-08 at cycle   5 NSaved=   5.
 NSaved= 5 IEnMin= 5 EnMin= -114.500472029485     IErMin= 5 ErrMin= 7.97D-08
 ErrMax= 7.97D-08 EMaxC= 1.00D+00 BMatC= 2.59D-13 BMatP= 2.75D-12
 IDIUse=1 WtCom= 1.00D+00 WtEn= 0.00D+00
 Coeff-Com: -0.495D-02 0.368D-01 0.323D-01 0.274D+00 0.662D+00
 Coeff:     -0.495D-02 0.368D-01 0.323D-01 0.274D+00 0.662D+00
 Gap=     0.226 Goal=   None    Shift=    0.000
 RMSDP=1.60D-08 MaxDP=1.27D-07 DE=-2.67D-12 OVMax= 1.58D-07

 Cycle  12  Pass 1  IDiag  1:
 E= -114.500472029486     Delta-E=        0.000000000000 Rises=F Damp=F
 DIIS: error= 1.32D-08 at cycle   6 NSaved=   6.
 NSaved= 6 IEnMin= 6 EnMin= -114.500472029486     IErMin= 6 ErrMin= 1.32D-08
 ErrMax= 1.32D-08 EMaxC= 1.00D+00 BMatC= 4.95D-15 BMatP= 2.59D-13
 IDIUse=1 WtCom= 1.00D+00 WtEn= 0.00D+00
 Coeff-Com:  0.190D-03-0.188D-02-0.548D-02-0.856D-02 0.371D-01 0.979D+00
 Coeff:      0.190D-03-0.188D-02-0.548D-02-0.856D-02 0.371D-01 0.979D+00
 Gap=     0.226 Goal=   None    Shift=    0.000
 RMSDP=1.88D-09 MaxDP=1.93D-08 DE=-2.84D-13 OVMax= 1.54D-08

 SCF Done:  E(RB+HF-LYP) =  -114.500472029     A.U. after   12 cycles
             Convg  =    0.1883D-08             -V/T =  2.0089
             S**2   =   0.0000
 KE= 1.134855961740D+02 PE=-3.308549341441D+02 EE= 7.164304525646D+01
 Leave Link  502 at Tue Aug 10 10:24:50 2010, MaxMem=   65536000 cpu:       1.0
 (Enter /opt/gaussian/g03_D1_amd64/g03/l601.exe)
 Copying SCF densities to generalized density rwf, ISCF=0 IROHF=0.

 **********************************************************************

            Population analysis using the SCF density.

 **********************************************************************

 Orbital symmetries:
       Occupied  (A') (A') (A') (A') (A") (A') (A') (A")
       Virtual   (A') (A') (A") (A') (A') (A') (A") (A') (A") (A')
                 (A') (A') (A") (A') (A") (A') (A') (A") (A") (A')
                 (A') (A') (A") (A') (A') (A')
 The electronic state is 1-A'.
 Alpha  occ. eigenvalues --  -19.16966 -10.28898  -1.06077  -0.63753  -0.49552
 Alpha  occ. eigenvalues --   -0.44943  -0.39913  -0.26845
 Alpha virt. eigenvalues --   -0.04209   0.10132   0.18210   0.21878   0.50661
 Alpha virt. eigenvalues --    0.62320   0.62717   0.69374   0.81430   0.83732
 Alpha virt. eigenvalues --    0.89062   0.96014   1.05929   1.37730   1.50574
 Alpha virt. eigenvalues --    1.51010   1.68200   1.85029   1.93138   2.12651
 Alpha virt. eigenvalues --    2.27968   2.54107   2.65629   2.91078   3.68316
 Alpha virt. eigenvalues --    4.05558
          Condensed to atoms (all electrons):
              1          2          3          4
     1  O    7.875877   0.557356  -0.055124  -0.055124
     2  C    0.557356   4.699982   0.331145   0.331145
     3  H   -0.055124   0.331145   0.697480  -0.094807
     4  H   -0.055124   0.331145  -0.094807   0.697480
 Mulliken atomic charges:
              1
     1  O   -0.322985
     2  C    0.080371
     3  H    0.121307
     4  H    0.121307
 Sum of Mulliken charges=   0.00000
 Atomic charges with hydrogens summed into heavy atoms:
              1
     1  O   -0.322985
     2  C    0.322985
     3  H    0.000000
     4  H    0.000000
 Sum of Mulliken charges=   0.00000
 Electronic spatial extent (au):  <R**2>=    60.2962
 Charge=     0.0000 electrons
 Dipole moment (field-independent basis, Debye):
    X=     0.0000    Y=    -2.1871    Z=     0.0000  Tot=     2.1871
 Quadrupole moment (field-independent basis, Debye-Ang):
   XX=   -11.4044   YY=   -11.9293   ZZ=   -11.5041
   XY=     0.0000   XZ=     0.0000   YZ=     0.0000
 Traceless Quadrupole moment (field-independent basis, Debye-Ang):
   XX=     0.2082   YY=    -0.3167   ZZ=     0.1085
   XY=     0.0000   XZ=     0.0000   YZ=     0.0000
 Octapole moment (field-independent basis, Debye-Ang**2):
  XXX=     0.0000  YYY=     1.2481  ZZZ=     0.0000  XYY=     0.0000
  XXY=     0.9131  XXZ=     0.0000  XZZ=     0.0000  YZZ=     0.0640
  YYZ=     0.0000  XYZ=     0.0000
 Hexadecapole moment (field-independent basis, Debye-Ang**3):
 XXXX=    -9.1913 YYYY=   -44.3828 ZZZZ=   -17.9870 XXXY=     0.0002
 XXXZ=     0.0000 YYYX=     0.0001 YYYZ=     0.0000 ZZZX=     0.0000
 ZZZY=     0.0000 XXYY=    -8.8975 XXZZ=    -4.7342 YYZZ=   -10.1638
 XXYZ=     0.0000 YYXZ=     0.0000 ZZXY=     0.0000
 N-N= 3.122582068416D+01 E-N=-3.308549342413D+02  KE= 1.134855961740D+02
 Symmetry A'   KE= 1.067691293633D+02
 Symmetry A"   KE= 6.716466810738D+00
 No NMR shielding tensors so no spin-rotation constants.
 Leave Link  601 at Tue Aug 10 10:24:50 2010, MaxMem=   65536000 cpu:       0.1
 (Enter /opt/gaussian/g03_D1_amd64/g03/l9999.exe)
 1\1\GINC-MOLMOD49\SP\RB3LYP\6-31G(d)\C1H2O1\TOON\10-Aug-2010\0\\#p B3L
 YP/6-31G(d) sp scf(fermi,tight) density(current)\\formaldehyde\\0,1\O,
 0,0.677449566,-0.000000056,0.000001938\C,0,-0.529095856,0.000000035,-0
 .000007839\H,0,-1.122510337,0.938192624,0.000015764\H,0,-1.122511062,-
 0.93819238,0.000015764\\Version=AM64L-G03RevD.01\State=1-A'\HF=-114.50
 0472\RMSD=1.883e-09\Thermal=0.\Dipole=-0.8604549,0.,0.\PG=CS [SG(C1O1)
 ,X(H2)]\\@


 IT WAS A GAME, A VERY INTERESTING GAME ONE COULD
 PLAY.  WHENEVER ONE SOLVED ONE OF THE LITTLE PROBLEMS,
 ONE COULD WRITE A PAPER ABOUT IT.  IT WAS VERY EASY IN
 THOSE DAYS FOR ANY SECOND-RATE PHYSICIST TO DO
 FIRST-RATE WORK.  THERE HAS NOT BEEN SUCH A GLORIOUS
 TIME SINCE.  IT IS VERY DIFFICULT NOW FOR A FIRST-RATE
 PHYSICIST TO DO SECOND-RATE WORK.
     P.A.M. DIRAC, ON THE EARLY DAYS OF QUANTUM MECHANICS
                   DIRECTIONS IN PHYSICS, 1978, P. 7
 Job cpu time:  0 days  0 hours  0 minutes  4.8 seconds.
 File lengths (MBytes):  RWF=     13 Int=      0 D2E=      0 Chk=     10 Scr=      1
 Normal termination of Gaussian 03 at Tue Aug 10 10:24:51 2010.
