formaldehyde                                                            
SP        RB3LYP                                                      6-31G(d)            
Number of atoms                            I                4
Charge                                     I                0
Multiplicity                               I                1
Number of electrons                        I               16
Number of alpha electrons                  I                8
Number of beta electrons                   I                8
Number of basis functions                  I               34
Number of independant functions            I               34
Number of point charges in /Mol/           I                0
Number of translation vectors              I                0
Info1-9                                    I   N=           9
          13          13           0           0           0         110
           1          18        -502
Num ILSW                                   I              100
ILSW                                       I   N=         100
           0           1           0           0           2           0
           0           0           0           0         402      200000
           0           0           0           0           0           0
           0      800000           0           0           0           0
           1           0           0           0     1000000           0
           0           0      100000           0          -1           0
           0           0           0           0           0           0
           0           0           0           1           0           0
           0           0           1      720000      810000           0
           0           0           0           0           0           0
           0           0           0           0           0           0
           0           0           0           0           0           0
           0           0           0           0           0           0
           0           0           0           0           0           0
           0           0           0           0           0           0
           0           0           0           0           0           0
           0           0           0           0
Number of contracted shells                I               12
Highest angular momentum                   I                2
Largest degree of contraction              I                6
Number of primitive shells                 I               30
Pure/Cartesian d shells                    I                1
Pure/Cartesian f shells                    I                0
Virial Ratio                               R      2.008942772384234E+00
SCF Energy                                 R     -1.145004720294857E+02
Total Energy                               R     -1.145004720294857E+02
RMS Density                                R      1.883152832370460E-09
Atomic numbers                             I   N=           4
           8           6           1           1
Nuclear charges                            R   N=           4
  8.00000000E+00  6.00000000E+00  1.00000000E+00  1.00000000E+00
Current cartesian coordinates              R   N=          12
 -6.71127230E-06  1.28019415E+00  1.32368973E-25 -6.71127230E-06 -9.99846266E-01
 -1.03381681E-25  4.69789006E-05 -2.12123712E+00  1.77292712E+00  4.69789006E-05
 -2.12123712E+00 -1.77292712E+00
Int Atom Types                             I   N=           4
           0           0           0           0
Force Field                                I                0
MM charges                                 R   N=           4
  0.00000000E+00  0.00000000E+00  0.00000000E+00  0.00000000E+00
Integer atomic weights                     I   N=           4
          16          12           1           1
Real atomic weights                        R   N=           4
  1.59949146E+01  1.20000000E+01  1.00782504E+00  1.00782504E+00
Atom residue info                          I   N=           4
           0           0           0           0
Atom fragment info                         I   N=           4
           0           0           0           0
Atom residue num                           I   N=           4
           0           0           0           0
Nuclear spins                              I   N=           4
           0           0           1           1
Nuclear ZEff                               R   N=           4
 -5.60000000E+00 -3.60000000E+00 -1.00000000E+00 -1.00000000E+00
Nuclear QMom                               R   N=           4
  0.00000000E+00  0.00000000E+00  0.00000000E+00  0.00000000E+00
Nuclear GFac                               R   N=           4
  0.00000000E+00  0.00000000E+00  2.79284600E+00  2.79284600E+00
MicOpt                                     I   N=           4
          -1          -1          -1          -1
Constraint Structure                       R   N=          12
 -6.71127230E-06  1.28019415E+00  1.32368973E-25 -6.71127230E-06 -9.99846266E-01
 -1.03381681E-25  4.69789006E-05 -2.12123712E+00  1.77292712E+00  4.69789006E-05
 -2.12123712E+00 -1.77292712E+00
ONIOM Charges                              I   N=          16
           0           0           0           0           0           0
           0           0           0           0           0           0
           0           0           0           0
ONIOM Multiplicities                       I   N=          16
           1           0           0           0           0           0
           0           0           0           0           0           0
           0           0           0           0
Atom Layers                                I   N=           4
           1           1           1           1
Atom Modifiers                             I   N=           4
           0           0           0           0
Int Atom Modified Types                    I   N=           4
           0           0           0           0
Link Atoms                                 I   N=           4
           0           0           0           0
Atom Modified MM Charges                   R   N=           4
  0.00000000E+00  0.00000000E+00  0.00000000E+00  0.00000000E+00
Link Distances                             R   N=          16
  0.00000000E+00  0.00000000E+00  0.00000000E+00  0.00000000E+00  0.00000000E+00
  0.00000000E+00  0.00000000E+00  0.00000000E+00  0.00000000E+00  0.00000000E+00
  0.00000000E+00  0.00000000E+00  0.00000000E+00  0.00000000E+00  0.00000000E+00
  0.00000000E+00
MxBond                                     I                3
NBond                                      I   N=           4
           1           3           1           1
IBond                                      I   N=          12
           2           0           0           1           3           4
           2           0           0           2           0           0
RBond                                      R   N=          12
  2.00000000E+00  0.00000000E+00  0.00000000E+00  2.00000000E+00  1.00000000E+00
  1.00000000E+00  1.00000000E+00  0.00000000E+00  0.00000000E+00  1.00000000E+00
  0.00000000E+00  0.00000000E+00
Shell types                                I   N=          12
           0          -1          -1           2           0          -1
          -1           2           0           0           0           0
Number of primitives per shell             I   N=          12
           6           3           1           1           6           3
           1           1           3           1           3           1
Shell to atom map                          I   N=          12
           1           1           1           1           2           2
           2           2           3           3           4           4
Primitive exponents                        R   N=          30
  5.48467166E+03  8.25234946E+02  1.88046958E+02  5.29645000E+01  1.68975704E+01
  5.79963534E+00  1.55396162E+01  3.59993359E+00  1.01376175E+00  2.70005823E-01
  8.00000000E-01  3.04752488E+03  4.57369518E+02  1.03948685E+02  2.92101553E+01
  9.28666296E+00  3.16392696E+00  7.86827235E+00  1.88128854E+00  5.44249258E-01
  1.68714478E-01  8.00000000E-01  1.87311370E+01  2.82539436E+00  6.40121692E-01
  1.61277759E-01  1.87311370E+01  2.82539436E+00  6.40121692E-01  1.61277759E-01
Contraction coefficients                   R   N=          30
  1.83107443E-03  1.39501722E-02  6.84450781E-02  2.32714336E-01  4.70192898E-01
  3.58520853E-01 -1.10777550E-01 -1.48026263E-01  1.13076702E+00  1.00000000E+00
  1.00000000E+00  1.83473713E-03  1.40373228E-02  6.88426223E-02  2.32184443E-01
  4.67941348E-01  3.62311985E-01 -1.19332420E-01 -1.60854152E-01  1.14345644E+00
  1.00000000E+00  1.00000000E+00  3.34946043E-02  2.34726953E-01  8.13757326E-01
  1.00000000E+00  3.34946043E-02  2.34726953E-01  8.13757326E-01  1.00000000E+00
P(S=P) Contraction coefficients            R   N=          30
  0.00000000E+00  0.00000000E+00  0.00000000E+00  0.00000000E+00  0.00000000E+00
  0.00000000E+00  7.08742682E-02  3.39752839E-01  7.27158577E-01  1.00000000E+00
  0.00000000E+00  0.00000000E+00  0.00000000E+00  0.00000000E+00  0.00000000E+00
  0.00000000E+00  0.00000000E+00  6.89990666E-02  3.16423961E-01  7.44308291E-01
  1.00000000E+00  0.00000000E+00  0.00000000E+00  0.00000000E+00  0.00000000E+00
  0.00000000E+00  0.00000000E+00  0.00000000E+00  0.00000000E+00  0.00000000E+00
Coordinates of each shell                  R   N=          36
 -6.71127230E-06  1.28019415E+00  1.32368973E-25 -6.71127230E-06  1.28019415E+00
  1.32368973E-25 -6.71127230E-06  1.28019415E+00  1.32368973E-25 -6.71127230E-06
  1.28019415E+00  1.32368973E-25 -6.71127230E-06 -9.99846266E-01 -1.03381681E-25
 -6.71127230E-06 -9.99846266E-01 -1.03381681E-25 -6.71127230E-06 -9.99846266E-01
 -1.03381681E-25 -6.71127230E-06 -9.99846266E-01 -1.03381681E-25  4.69789006E-05
 -2.12123712E+00  1.77292712E+00  4.69789006E-05 -2.12123712E+00  1.77292712E+00
  4.69789006E-05 -2.12123712E+00 -1.77292712E+00  4.69789006E-05 -2.12123712E+00
 -1.77292712E+00
Alpha Orbital Energies                     R   N=          34
 -1.91696598E+01 -1.02889819E+01 -1.06077485E+00 -6.37527120E-01 -4.95515154E-01
 -4.49434867E-01 -3.99133420E-01 -2.68449244E-01 -4.20905919E-02  1.01318222E-01
  1.82096120E-01  2.18780970E-01  5.06607975E-01  6.23199109E-01  6.27172548E-01
  6.93744047E-01  8.14301975E-01  8.37315100E-01  8.90624797E-01  9.60144387E-01
  1.05929027E+00  1.37730169E+00  1.50573557E+00  1.51010144E+00  1.68200276E+00
  1.85028708E+00  1.93138069E+00  2.12650603E+00  2.27967528E+00  2.54107006E+00
  2.65629102E+00  2.91077833E+00  3.68316233E+00  4.05557910E+00
Alpha MO coefficients                      R   N=        1156
  9.92820966E-01  2.59537013E-02 -2.28105294E-09 -1.22700334E-03  0.00000000E+00
  1.22079892E-02 -2.81697119E-10 -1.18185029E-03  0.00000000E+00 -7.95677092E-03
 -7.41446227E-03 -7.91565751E-03  6.46078850E-11  0.00000000E+00  0.00000000E+00
  3.11540255E-05  5.59198303E-04 -1.31543787E-09 -7.14502427E-05  0.00000000E+00
 -2.59414722E-03  4.86474366E-09 -1.96617042E-03  0.00000000E+00  3.01223256E-06
 -8.51966442E-04 -2.13707557E-05  7.86811288E-10  0.00000000E+00  0.00000000E+00
  5.99444383E-05 -1.83580096E-04  5.99444383E-05 -1.83580096E-04 -2.19643388E-04
  1.45444303E-04 -8.52382281E-10  4.15276562E-05  0.00000000E+00 -1.40613782E-03
  2.09358481E-08  1.62514523E-03  0.00000000E+00  2.08712633E-04 -4.24426006E-04
  7.97968297E-05 -8.99465206E-09  0.00000000E+00  0.00000000E+00  9.92746676E-01
  4.86665402E-02 -2.60900772E-09  9.63265007E-04  0.00000000E+00 -7.73859299E-03
 -6.25105038E-08  1.72252338E-03  0.00000000E+00 -9.91974069E-03 -8.61297833E-03
 -9.64774955E-03 -1.31954521E-08  0.00000000E+00  0.00000000E+00 -3.87424864E-04
  2.14594218E-03 -3.87424864E-04  2.14594218E-03 -1.96277233E-01  4.35584412E-01
  5.55305648E-08 -1.66030571E-01  0.00000000E+00  3.70159074E-01 -2.71370271E-08
 -4.59829150E-02  0.00000000E+00 -3.12371620E-03  1.15708689E-02 -8.67103906E-03
  3.83712432E-08  0.00000000E+00  0.00000000E+00 -1.16585974E-01  2.26130290E-01
  2.12295779E-07  1.88633193E-01  0.00000000E+00  9.26390501E-02  3.47708523E-07
 -1.43148982E-02  0.00000000E+00 -1.97745741E-02  2.62490762E-02 -1.71452496E-02
 -8.20904557E-08  0.00000000E+00  0.00000000E+00  2.75387750E-02 -8.41897780E-03
  2.75387750E-02 -8.41897780E-03  8.72315318E-02 -1.99077202E-01  2.03862186E-06
 -1.01330094E-01  0.00000000E+00 -2.50866477E-01  7.19425432E-07 -5.52945739E-02
  0.00000000E+00 -1.08089225E-03  1.36138836E-02  1.00564998E-03 -2.85794465E-07
  0.00000000E+00  0.00000000E+00 -1.63889671E-01  3.43049713E-01  6.21332141E-06
 -2.22441625E-01  0.00000000E+00  3.27470910E-01  2.15347007E-06 -8.76923758E-02
  0.00000000E+00 -1.25323797E-02 -1.37717531E-02  1.72711959E-02 -6.59209273E-07
  0.00000000E+00  0.00000000E+00  1.80085220E-01  6.78839203E-02  1.80085220E-01
  6.78839203E-02  0.00000000E+00  0.00000000E+00  0.00000000E+00  0.00000000E+00
  2.86270126E-01  0.00000000E+00  0.00000000E+00  0.00000000E+00  1.50506206E-01
  0.00000000E+00  0.00000000E+00  0.00000000E+00  0.00000000E+00  2.50042459E-08
 -2.27844390E-02  0.00000000E+00  0.00000000E+00  0.00000000E+00  0.00000000E+00
  4.45085215E-01  0.00000000E+00  0.00000000E+00  0.00000000E+00  1.61558055E-01
  0.00000000E+00  0.00000000E+00  0.00000000E+00  0.00000000E+00  1.11581157E-06
 -8.28015023E-03  1.94887731E-01  1.35275506E-01 -1.94887731E-01 -1.35275506E-01
 -8.66640412E-02  1.71138558E-01  8.25722392E-06  5.22949292E-01  0.00000000E+00
  4.11434086E-01  4.87227427E-06  2.58839383E-01  0.00000000E+00 -1.47782745E-03
 -3.79997890E-02 -3.68714488E-03 -6.60999485E-07  0.00000000E+00  0.00000000E+00
  2.96287619E-02 -8.69291749E-02  9.60972433E-06 -3.61660640E-01  0.00000000E+00
 -2.56101889E-02  3.89302419E-06 -8.30748859E-02  0.00000000E+00  6.54638376E-03
 -5.64457499E-03  1.91733704E-02  8.32947517E-08  0.00000000E+00  0.00000000E+00
  8.06539375E-02  8.04019257E-02  8.06539375E-02  8.04019257E-02  9.75720967E-07
 -1.22591572E-06  5.09182363E-01 -1.02404195E-05  0.00000000E+00 -7.21143595E-06
  3.13745591E-01 -4.66110886E-06  0.00000000E+00  1.73676332E-07  7.33390360E-07
  2.21660659E-07 -3.33783901E-02  0.00000000E+00  0.00000000E+00  1.70429529E-06
 -3.30267006E-06  3.59904353E-01  1.08161224E-05  0.00000000E+00 -5.40182162E-06
  2.08725102E-01  4.35017288E-06  0.00000000E+00  3.43257333E-08  3.26433684E-07
 -2.96542322E-07  2.77865947E-02  0.00000000E+00  0.00000000E+00 -7.91567650E-07
 -1.72339582E-06 -7.91567650E-07 -1.72339582E-06  0.00000000E+00  0.00000000E+00
  0.00000000E+00  0.00000000E+00  5.84890474E-01  0.00000000E+00  0.00000000E+00
  0.00000000E+00  4.18259387E-01  0.00000000E+00  0.00000000E+00  0.00000000E+00
  0.00000000E+00 -7.56568374E-08 -1.83856328E-02  0.00000000E+00  0.00000000E+00
  0.00000000E+00  0.00000000E+00 -1.49677198E-01  0.00000000E+00  0.00000000E+00
  0.00000000E+00  3.23645730E-02  0.00000000E+00  0.00000000E+00  0.00000000E+00
  0.00000000E+00 -8.34669515E-07  5.34903955E-02 -1.82930072E-01 -2.84076375E-01
  1.82930072E-01  2.84076375E-01 -3.34676422E-07  2.16779167E-06 -4.41855293E-01
 -4.37222817E-06  0.00000000E+00 -2.88320020E-06 -4.64684800E-01 -2.54217500E-06
  0.00000000E+00  2.35055685E-07  3.37736766E-07  4.90771914E-07  7.47244595E-04
  0.00000000E+00  0.00000000E+00  4.79949409E-06 -7.70537799E-06  4.96642053E-01
  9.99018186E-06  0.00000000E+00 -4.07004932E-05  5.83639705E-01  1.61504436E-05
  0.00000000E+00  3.33771299E-07  6.84703621E-07  5.86686914E-07 -3.19652496E-02
  0.00000000E+00  0.00000000E+00  7.53408216E-06  2.09558204E-05  7.53408216E-06
  2.09558204E-05  5.98383308E-03 -1.92607257E-02 -9.85544574E-06  8.19307664E-02
  0.00000000E+00  3.65841735E-03 -1.69412927E-05  8.53394588E-02  0.00000000E+00
  4.96533869E-03  2.45736145E-03 -7.58843085E-03 -2.35446946E-07  0.00000000E+00
  0.00000000E+00 -1.32072318E-01  2.22459589E-01  1.93951314E-05 -2.48124963E-01
  0.00000000E+00  1.84874958E+00  4.79216118E-05 -6.21169939E-01  0.00000000E+00
  3.85774603E-04 -1.06828124E-02 -1.44681038E-02 -7.53505770E-07  0.00000000E+00
  0.00000000E+00 -9.48220815E-02 -1.35100573E+00 -9.48220815E-02 -1.35100573E+00
  0.00000000E+00  0.00000000E+00  0.00000000E+00  0.00000000E+00  1.79197983E-01
  0.00000000E+00  0.00000000E+00  0.00000000E+00  3.78822894E-01  0.00000000E+00
  0.00000000E+00  0.00000000E+00  0.00000000E+00  6.05378001E-07  1.03067232E-02
  0.00000000E+00  0.00000000E+00  0.00000000E+00  0.00000000E+00 -5.42083019E-01
  0.00000000E+00  0.00000000E+00  0.00000000E+00 -1.33884962E+00  0.00000000E+00
  0.00000000E+00  0.00000000E+00  0.00000000E+00  5.15566369E-07  4.28272113E-03
  1.84628032E-02  1.56155176E+00 -1.84628032E-02 -1.56155176E+00 -1.12806516E-01
  8.71080701E-02  1.14835912E-07 -1.90524744E-01  0.00000000E+00  2.19996904E+00
 -1.41966215E-06 -8.98513561E-01  0.00000000E+00 -7.59868882E-02 -4.83692689E-03
 -7.84594875E-02 -1.24096969E-08  0.00000000E+00  0.00000000E+00  4.85262082E-02
 -8.07294625E-03  4.35675424E-07 -1.24416871E-01  0.00000000E+00 -1.59660782E+00
  5.53689326E-06 -1.99172629E+00  0.00000000E+00 -1.05242233E-02  1.67832351E-02
 -2.18198983E-02 -2.76123084E-07  0.00000000E+00  0.00000000E+00  1.24791065E-02
 -2.09380424E-01  1.24791065E-02 -2.09380424E-01 -2.08756561E-07  2.59051149E-06
 -3.89310873E-02  7.40874904E-07  0.00000000E+00  8.32460020E-07 -1.22142469E-01
 -2.68706735E-06  0.00000000E+00  7.14956606E-07  8.70822708E-07  4.00610425E-07
  7.31801044E-02  0.00000000E+00  0.00000000E+00 -1.15197955E-06  1.63145316E-05
 -1.02715972E+00 -9.53765541E-06  0.00000000E+00 -8.67292431E-06  1.16769325E+00
  2.46289756E-07  0.00000000E+00  1.46845215E-06  1.37073586E-06  4.36498946E-07
 -1.89642338E-02  0.00000000E+00  0.00000000E+00 -2.34410817E-07 -1.00070632E-05
 -2.34410817E-07 -1.00070632E-05  2.82061831E-02 -2.97511681E-01 -1.05741670E-05
  1.72436521E-01  0.00000000E+00  4.01847082E-01 -3.54007484E-06  2.09896509E-01
  0.00000000E+00 -6.00822681E-02  8.86675015E-03 -9.97687825E-02 -8.75175667E-07
  0.00000000E+00  0.00000000E+00 -7.99943454E-02 -4.37901970E-01 -3.37577956E-06
  6.30072656E-01  0.00000000E+00  1.52009831E+00  3.70804935E-05 -1.07163658E+00
  0.00000000E+00  9.48468974E-02 -1.26514240E-01 -1.60655689E-01  2.45986005E-06
  0.00000000E+00  0.00000000E+00 -5.54373485E-01 -2.52820205E-01 -5.54373485E-01
 -2.52820205E-01  0.00000000E+00  0.00000000E+00  0.00000000E+00  0.00000000E+00
 -3.70520923E-01  0.00000000E+00  0.00000000E+00  0.00000000E+00 -2.05288710E-01
  0.00000000E+00  0.00000000E+00  0.00000000E+00  0.00000000E+00 -1.82910935E-06
  3.02470594E-02  0.00000000E+00  0.00000000E+00  0.00000000E+00  0.00000000E+00
 -7.52404105E-01  0.00000000E+00  0.00000000E+00  0.00000000E+00  2.27961099E+00
  0.00000000E+00  0.00000000E+00  0.00000000E+00  0.00000000E+00 -7.51550819E-06
  5.73992496E-02 -3.13393260E-01 -9.37702496E-01  3.13393260E-01  9.37702496E-01
 -4.15748546E-02  3.77725115E-02 -6.37173255E-06 -4.03624047E-01  0.00000000E+00
 -2.86063566E-02  8.65519089E-07 -1.88920812E-01  0.00000000E+00  4.97958170E-02
 -2.17901595E-01  2.38637368E-02 -9.28417104E-07  0.00000000E+00  0.00000000E+00
  2.77618400E-02 -8.91984602E-01  1.66389004E-06 -7.88044660E-01  0.00000000E+00
  9.63022165E-01  1.00623267E-05  4.00701894E-01  0.00000000E+00 -3.38115108E-02
  1.24378922E-01 -1.92722229E-01  1.58029298E-06  0.00000000E+00  0.00000000E+00
 -3.30190977E-01  6.50035104E-02 -3.30190977E-01  6.50035104E-02  0.00000000E+00
  0.00000000E+00  0.00000000E+00  0.00000000E+00 -1.91579331E-01  0.00000000E+00
  0.00000000E+00  0.00000000E+00  1.66227394E-01  0.00000000E+00  0.00000000E+00
  0.00000000E+00  0.00000000E+00  2.06082787E-07 -1.16017855E-01  0.00000000E+00
  0.00000000E+00  0.00000000E+00  0.00000000E+00  7.21592258E-01  0.00000000E+00
  0.00000000E+00  0.00000000E+00 -1.15952089E+00  0.00000000E+00  0.00000000E+00
  0.00000000E+00  0.00000000E+00 -9.46264310E-06  1.90116082E-01 -7.42145945E-01
  1.36958502E+00  7.42145945E-01 -1.36958502E+00  3.14614197E-03 -4.58144803E-01
  1.16117262E-06 -6.50600807E-01  0.00000000E+00  4.18981962E-01 -1.38287531E-06
  1.17337911E+00  0.00000000E+00 -1.53693937E-01 -2.54953303E-01 -1.60673253E-01
  1.62324123E-06  0.00000000E+00  0.00000000E+00  6.25553068E-02 -3.21537199E-01
 -9.78091445E-06  4.23392626E-01  0.00000000E+00  1.51575811E+00  1.84503844E-05
 -3.24722141E-01  0.00000000E+00 -1.24773664E-01  2.11626762E-01 -2.24362921E-02
 -2.66720475E-06  0.00000000E+00  0.00000000E+00  3.16396293E-01 -6.97211496E-01
  3.16396293E-01 -6.97211496E-01  4.32047557E-03  3.36226640E-01 -5.82015058E-06
  2.49315079E-01  0.00000000E+00 -8.09756600E-01  5.16580180E-06 -3.65305399E-01
  0.00000000E+00  1.56435716E-01  1.09049779E-01  1.20277112E-01  2.60686115E-06
  0.00000000E+00  0.00000000E+00  3.80361910E-03 -1.46829898E+00 -1.54822530E-05
  3.32486398E-01  0.00000000E+00  2.90455517E+00  3.35136945E-05 -5.68819163E-01
  0.00000000E+00 -8.63719788E-02 -1.79834774E-01  3.22070616E-02 -3.76179605E-06
  0.00000000E+00  0.00000000E+00  4.55529246E-01 -1.26195885E+00  4.55529246E-01
 -1.26195885E+00  5.06711381E-08  1.42283887E-06 -9.48699163E-01 -1.86941816E-06
  0.00000000E+00 -1.97083230E-06  1.25496682E+00  3.38666249E-06  0.00000000E+00
 -1.44866813E-06  7.92951800E-07  1.00079560E-06  3.16190242E-02  0.00000000E+00
  0.00000000E+00  9.20960737E-07  2.17114615E-05  6.44072190E-02 -3.83231986E-06
  0.00000000E+00 -5.16094447E-05 -4.82608697E-01  1.78167248E-05  0.00000000E+00
 -2.99227032E-06  1.69657714E-06  5.09536467E-06 -2.89606297E-02  0.00000000E+00
  0.00000000E+00  2.50373905E-06  2.11151694E-05  2.50373905E-06  2.11151694E-05
  0.00000000E+00  0.00000000E+00  0.00000000E+00  0.00000000E+00  8.37497280E-01
  0.00000000E+00  0.00000000E+00  0.00000000E+00 -1.51631958E+00  0.00000000E+00
  0.00000000E+00  0.00000000E+00  0.00000000E+00 -4.67338532E-06 -1.12562448E-01
  0.00000000E+00  0.00000000E+00  0.00000000E+00  0.00000000E+00 -2.70193620E-01
  0.00000000E+00  0.00000000E+00  0.00000000E+00  1.64319481E+00  0.00000000E+00
  0.00000000E+00  0.00000000E+00  0.00000000E+00 -1.52708337E-05  1.74446368E-01
 -1.66302376E-01 -6.67260610E-01  1.66302376E-01  6.67260610E-01 -9.62570198E-02
 -1.71681052E+00  6.03300030E-07  3.06115261E-01  0.00000000E+00  5.19610548E+00
  2.08191931E-06 -1.81332487E+00  0.00000000E+00 -4.02300378E-01 -5.90114079E-01
 -3.15426247E-01  3.36098288E-06  0.00000000E+00  0.00000000E+00 -2.89160991E-02
 -3.85432261E-02  1.45281209E-07 -1.67528026E-01  0.00000000E+00 -2.72697433E+00
 -1.49066195E-06 -1.73631422E+00  0.00000000E+00 -3.73277538E-02 -1.91264216E-01
  2.31852036E-01 -4.82353057E-06  0.00000000E+00  0.00000000E+00  8.86046116E-02
 -4.77568787E-02  8.86046116E-02 -4.77568787E-02  0.00000000E+00  0.00000000E+00
  0.00000000E+00  0.00000000E+00 -3.06929488E-06  0.00000000E+00  0.00000000E+00
  0.00000000E+00 -1.93376101E-05  0.00000000E+00  0.00000000E+00  0.00000000E+00
  0.00000000E+00  4.97735749E-01 -3.02651727E-05  0.00000000E+00  0.00000000E+00
  0.00000000E+00  0.00000000E+00 -1.97016087E-05  0.00000000E+00  0.00000000E+00
  0.00000000E+00  4.16207897E-05  0.00000000E+00  0.00000000E+00  0.00000000E+00
  0.00000000E+00  8.07339979E-01  3.77573000E-05  3.96511114E-06 -2.65960157E-05
 -3.96511114E-06  2.65960157E-05 -2.15447382E-07 -1.84338492E-06 -1.33784044E-01
 -6.02956487E-07  0.00000000E+00  7.23777049E-06 -1.22895438E-01 -1.39090324E-06
  0.00000000E+00 -1.38929149E-05 -1.05466481E-06  1.32014435E-05 -5.42389943E-01
  0.00000000E+00  0.00000000E+00 -3.86011081E-08 -7.86251580E-06 -2.13493359E-01
  1.67169336E-06  0.00000000E+00  1.58998080E-05  1.38503712E-01 -9.78069835E-06
  0.00000000E+00 -2.24519763E-05 -1.06749088E-06  2.42580957E-05  6.70880654E-01
  0.00000000E+00  0.00000000E+00  1.93262603E-06 -1.05536452E-05  1.93262603E-06
 -1.05536452E-05  8.27981204E-03  2.12113680E-01  6.99064649E-06 -1.86303955E-02
  0.00000000E+00 -6.42237327E-01 -7.57416322E-06  2.39910391E-01  0.00000000E+00
 -6.87395085E-01  8.09859684E-02  7.16903397E-01  1.78568473E-05  0.00000000E+00
  0.00000000E+00 -2.51304323E-02 -2.02999953E-01  6.30154790E-06  2.28988404E-02
  0.00000000E+00  1.02582330E+00  1.53297599E-05 -2.86939853E-02  0.00000000E+00
 -4.76642542E-01  4.68207688E-02  3.94595463E-01 -1.81202670E-05  0.00000000E+00
  0.00000000E+00 -2.85113049E-01 -1.67573368E-01 -2.85113049E-01 -1.67573368E-01
  0.00000000E+00  0.00000000E+00  0.00000000E+00  0.00000000E+00  2.77194586E-01
  0.00000000E+00  0.00000000E+00  0.00000000E+00 -4.81342237E-01  0.00000000E+00
  0.00000000E+00  0.00000000E+00  0.00000000E+00  1.65789994E-04  6.93335745E-01
  0.00000000E+00  0.00000000E+00  0.00000000E+00  0.00000000E+00  2.81117167E-01
  0.00000000E+00  0.00000000E+00  0.00000000E+00  8.34285610E-01  0.00000000E+00
  0.00000000E+00  0.00000000E+00  0.00000000E+00 -4.85177163E-05 -5.39054144E-01
 -5.80876657E-01 -1.31863411E-01  5.80876657E-01  1.31863411E-01  0.00000000E+00
  0.00000000E+00  0.00000000E+00  0.00000000E+00 -4.67187148E-05  0.00000000E+00
  0.00000000E+00  0.00000000E+00  9.51146880E-05  0.00000000E+00  0.00000000E+00
  0.00000000E+00  0.00000000E+00  8.76431608E-01 -1.20653321E-04  0.00000000E+00
  0.00000000E+00  0.00000000E+00  0.00000000E+00 -4.74542577E-05  0.00000000E+00
  0.00000000E+00  0.00000000E+00 -1.64006047E-04  0.00000000E+00  0.00000000E+00
  0.00000000E+00  0.00000000E+00 -6.03386629E-01  7.53665065E-05  1.07784930E-04
  2.84098934E-05 -1.07784930E-04 -2.84098934E-05 -1.06959144E-03 -1.00847044E-02
 -4.23876424E-06 -1.51277968E-01  0.00000000E+00  3.38064561E-01  1.21499590E-05
 -6.59670137E-02  0.00000000E+00 -4.18623975E-01 -8.48825018E-02  5.84544703E-01
 -1.57255418E-05  0.00000000E+00  0.00000000E+00  5.97014122E-02  1.04030703E-01
 -6.13200521E-06  1.00713809E-02  0.00000000E+00 -8.57505399E-01 -1.78836053E-05
 -9.95177060E-03  0.00000000E+00  9.89376978E-01 -2.53160228E-01 -5.43360228E-01
  1.62035615E-06  0.00000000E+00  0.00000000E+00  4.01276630E-01  5.15600633E-02
  4.01276630E-01  5.15600633E-02 -5.07139643E-04 -5.60576347E-01 -2.07282916E-06
  6.52676136E-01  0.00000000E+00  2.15913624E-01  8.84843378E-06 -3.26065252E-01
  0.00000000E+00 -3.18105040E-01 -1.78888977E-02 -6.16677133E-02 -1.38739276E-05
  0.00000000E+00  0.00000000E+00 -5.97046816E-02  3.02508544E-02 -5.08278203E-06
  1.57355113E-01  0.00000000E+00  8.89697685E-02 -9.91104893E-06  4.13071033E-01
  0.00000000E+00 -3.40696250E-01  9.96048010E-01 -8.84935165E-01 -4.62251745E-06
  0.00000000E+00  0.00000000E+00  2.47261989E-01 -2.25729549E-02  2.47261989E-01
 -2.25729549E-02  4.02347460E-07 -6.58332450E-06 -2.17982923E-03  6.07545058E-06
  0.00000000E+00  7.04214599E-07 -4.86369181E-01 -1.39519740E-06  0.00000000E+00
 -3.03488428E-06 -2.81347665E-06  5.45568489E-06  1.04201606E+00  0.00000000E+00
  0.00000000E+00  7.82843826E-07 -3.71804660E-06  2.71307919E-01  5.55538036E-06
  0.00000000E+00  1.28837441E-06  2.85617087E-01  2.89599781E-06  0.00000000E+00
  8.22327025E-06  1.16726690E-05 -1.34377581E-05  9.76840145E-01  0.00000000E+00
  0.00000000E+00  1.31948607E-05 -7.16449019E-06  1.31948607E-05 -7.16449019E-06
  0.00000000E+00  0.00000000E+00  0.00000000E+00  0.00000000E+00 -4.67405698E-02
  0.00000000E+00  0.00000000E+00  0.00000000E+00 -4.16279890E-01  0.00000000E+00
  0.00000000E+00  0.00000000E+00  0.00000000E+00  6.13662082E-06  9.57828867E-01
  0.00000000E+00  0.00000000E+00  0.00000000E+00  0.00000000E+00  1.28326994E-01
  0.00000000E+00  0.00000000E+00  0.00000000E+00  3.03194397E-01  0.00000000E+00
  0.00000000E+00  0.00000000E+00  0.00000000E+00 -1.60713520E-05  1.12568547E+00
  3.61691083E-01 -3.02990549E-01 -3.61691083E-01  3.02990549E-01 -4.67728966E-02
 -6.82836147E-01 -3.32086733E-07 -3.01864267E-01  0.00000000E+00  2.88297911E+00
 -4.52500718E-08 -1.78208048E+00  0.00000000E+00 -7.00103002E-01  1.52092669E+00
 -6.80654486E-01  1.15978424E-06  0.00000000E+00  0.00000000E+00 -5.57024366E-02
 -1.31804067E+00 -2.36658487E-07 -1.35760446E+00  0.00000000E+00 -1.38604435E+00
 -5.94431175E-07 -7.81516031E-01  0.00000000E+00  3.53387116E-01 -7.52877237E-01
  2.65162457E-01  2.47380570E-06  0.00000000E+00  0.00000000E+00  6.29297320E-02
 -2.34265305E-02  6.29297320E-02 -2.34265305E-02 -5.13856772E-01 -9.14418355E-02
 -4.08286486E-07  2.56528335E-01  0.00000000E+00  5.25009248E+00  6.46438311E-07
 -1.06233038E+00  0.00000000E+00 -1.77164420E+00 -1.53387766E+00 -1.75999819E+00
  5.75331600E-07  0.00000000E+00  0.00000000E+00  7.93603139E-03 -2.19579492E-01
 -3.28640573E-07  6.03942500E-02  0.00000000E+00 -1.86193547E+00 -2.04238483E-06
 -1.03004723E+00  0.00000000E+00  1.66087046E-01  1.89273468E-01  7.40771210E-02
  2.11766131E-06  0.00000000E+00  0.00000000E+00  7.98078614E-02 -1.15044039E-03
  7.98078614E-02 -1.15044039E-03 -3.55099061E-02  4.87505027E-02  3.73794280E-07
 -2.58668980E-01  0.00000000E+00  6.50418265E-01 -4.04665246E-06 -4.61141921E-01
  0.00000000E+00 -1.88047870E-01  2.49331583E-01 -1.45209815E-01  2.33872284E-06
  0.00000000E+00  0.00000000E+00 -4.74891342E-01  2.91949478E+00 -3.00271892E-06
 -2.95022291E-01  0.00000000E+00  1.11377479E+00  1.32016337E-05 -4.39220702E-01
  0.00000000E+00 -1.72046872E+00 -2.15225144E+00 -1.78176454E+00  3.69466946E-06
  0.00000000E+00  0.00000000E+00  1.86156705E-01 -4.58332954E-01  1.86156705E-01
 -4.58332954E-01
Total SCF Density                          R   N=         595
  2.07867654E+00 -1.83850649E-01  5.18655068E-01 -1.08232509E-07  8.14401023E-07
  5.18533357E-01 -4.55805221E-02  7.46342623E-02 -2.22384469E-06  6.22622815E-01
 -4.71291553E-27  7.71700185E-27 -1.30801976E-30  1.52068648E-25  8.48094904E-01
 -2.36146300E-01  5.63812386E-01 -1.53105203E-06  3.58213455E-01  3.70384031E-26