oxalic acid                                                             
SP        RB3LYP                                                      6-31G(d)            
Number of atoms                            I                8
Charge                                     I                0
Multiplicity                               I                1
Number of electrons                        I               46
Number of alpha electrons                  I               23
Number of beta electrons                   I               23
Number of basis functions                  I               94
Number of independant functions            I               94
Number of point charges in /Mol/           I                0
Number of translation vectors              I                0
Info1-9                                    I   N=           9
          17          17           0           0           0         110
           1          18        -502
Num ILSW                                   I              100
ILSW                                       I   N=         100
           0           1           0           0           2           0
           0           0           0           0         402      200000
           0           0           0           0           0           0
           0      800000           0           0           0           0
           1           0           0           0     1000000           0
           0           0      100000           0          -1           0
           0           0           0           0           0           0
           0           0           0           1           0           0
           0           0           1      720000      810000           0
           0           0           0           0           0           0
           0           0           0           0           0           0
           0           0           0           0           0           0
           0           0           0           0           0           0
           0           0           0           0           0           0
           0           0           0           0           0           0
           0           0           0           0           0           0
           0           0           0           0
Number of contracted shells                I               28
Highest angular momentum                   I                2
Largest degree of contraction              I                6
Number of primitive shells                 I               74
Pure/Cartesian d shells                    I                1
Pure/Cartesian f shells                    I                0
Virial Ratio                               R      2.008535847645015E+00
SCF Energy                                 R     -3.783134281837098E+02
Total Energy                               R     -3.783134281837098E+02
RMS Density                                R      3.385731578785072E-09
Atomic numbers                             I   N=           8
           8           8           8           8           6           6
           1           1
Nuclear charges                            R   N=           8
  8.00000000E+00  8.00000000E+00  8.00000000E+00  8.00000000E+00  6.00000000E+00
  6.00000000E+00  1.00000000E+00  1.00000000E+00
Current cartesian coordinates              R   N=          24
 -2.77946007E+00  1.83384780E+00  5.55721706E-04  2.77945896E+00 -1.83384809E+00
  5.08794137E-04 -2.28519954E+00 -2.41604411E+00 -3.60365844E-05  2.28520004E+00
  2.41604448E+00 -1.54299425E-04 -1.42091728E+00 -3.07813822E-01 -7.15701155E-04
  1.42091849E+00  3.07813337E-01 -8.72081662E-04 -4.55143632E+00  1.32190711E+00
  1.31350000E-03  4.55143388E+00 -1.32190485E+00  1.21975824E-03
Int Atom Types                             I   N=           8
           0           0           0           0           0           0
           0           0
Force Field                                I                0
MM charges                                 R   N=           8
  0.00000000E+00  0.00000000E+00  0.00000000E+00  0.00000000E+00  0.00000000E+00
  0.00000000E+00  0.00000000E+00  0.00000000E+00
Integer atomic weights                     I   N=           8
          16          16          16          16          12          12
           1           1
Real atomic weights                        R   N=           8
  1.59949146E+01  1.59949146E+01  1.59949146E+01  1.59949146E+01  1.20000000E+01
  1.20000000E+01  1.00782504E+00  1.00782504E+00
Atom residue info                          I   N=           8
           0           0           0           0           0           0
           0           0
Atom fragment info                         I   N=           8
           0           0           0           0           0           0
           0           0
Atom residue num                           I   N=           8
           0           0           0           0           0           0
           0           0
Nuclear spins                              I   N=           8
           0           0           0           0           0           0
           1           1
Nuclear ZEff                               R   N=           8
 -5.60000000E+00 -5.60000000E+00 -5.60000000E+00 -5.60000000E+00 -3.60000000E+00
 -3.60000000E+00 -1.00000000E+00 -1.00000000E+00
Nuclear QMom                               R   N=           8
  0.00000000E+00  0.00000000E+00  0.00000000E+00  0.00000000E+00  0.00000000E+00
  0.00000000E+00  0.00000000E+00  0.00000000E+00
Nuclear GFac                               R   N=           8
  0.00000000E+00  0.00000000E+00  0.00000000E+00  0.00000000E+00  0.00000000E+00
  0.00000000E+00  2.79284600E+00  2.79284600E+00
MicOpt                                     I   N=           8
          -1          -1          -1          -1          -1          -1
          -1          -1
Constraint Structure                       R   N=          24
 -2.77946007E+00  1.83384780E+00  5.55721706E-04  2.77945896E+00 -1.83384809E+00
  5.08794137E-04 -2.28519954E+00 -2.41604411E+00 -3.60365844E-05  2.28520004E+00
  2.41604448E+00 -1.54299425E-04 -1.42091728E+00 -3.07813822E-01 -7.15701155E-04
  1.42091849E+00  3.07813337E-01 -8.72081662E-04 -4.55143632E+00  1.32190711E+00
  1.31350000E-03  4.55143388E+00 -1.32190485E+00  1.21975824E-03
ONIOM Charges                              I   N=          16
           0           0           0           0           0           0
           0           0           0           0           0           0
           0           0           0           0
ONIOM Multiplicities                       I   N=          16
           1           0           0           0           0           0
           0           0           0           0           0           0
           0           0           0           0
Atom Layers                                I   N=           8
           1           1           1           1           1           1
           1           1
Atom Modifiers                             I   N=           8
           0           0           0           0           0           0
           0           0
Int Atom Modified Types                    I   N=           8
           0           0           0           0           0           0
           0           0
Link Atoms                                 I   N=           8
           0           0           0           0           0           0
           0           0
Atom Modified MM Charges                   R   N=           8
  0.00000000E+00  0.00000000E+00  0.00000000E+00  0.00000000E+00  0.00000000E+00
  0.00000000E+00  0.00000000E+00  0.00000000E+00
Link Distances                             R   N=          32
  0.00000000E+00  0.00000000E+00  0.00000000E+00  0.00000000E+00  0.00000000E+00
  0.00000000E+00  0.00000000E+00  0.00000000E+00  0.00000000E+00  0.00000000E+00
  0.00000000E+00  0.00000000E+00  0.00000000E+00  0.00000000E+00  0.00000000E+00
  0.00000000E+00  0.00000000E+00  0.00000000E+00  0.00000000E+00  0.00000000E+00
  0.00000000E+00  0.00000000E+00  0.00000000E+00  0.00000000E+00  0.00000000E+00
  0.00000000E+00  0.00000000E+00  0.00000000E+00  0.00000000E+00  0.00000000E+00
  0.00000000E+00  0.00000000E+00
MxBond                                     I                3
NBond                                      I   N=           8
           2           2           1           1           3           3
           1           1
IBond                                      I   N=          24
           5           7           0           6           8           0
           5           0           0           6           0           0
           1           3           6           2           4           5
           1           0           0           2           0           0
RBond                                      R   N=          24
  1.50000000E+00  1.00000000E+00  0.00000000E+00  1.50000000E+00  1.00000000E+00
  0.00000000E+00  2.00000000E+00  0.00000000E+00  0.00000000E+00  2.00000000E+00
  0.00000000E+00  0.00000000E+00  1.50000000E+00  2.00000000E+00  1.00000000E+00
  1.50000000E+00  2.00000000E+00  1.00000000E+00  1.00000000E+00  0.00000000E+00
  0.00000000E+00  1.00000000E+00  0.00000000E+00  0.00000000E+00
Shell types                                I   N=          28
           0          -1          -1           2           0          -1
          -1           2           0          -1          -1           2
           0          -1          -1           2           0          -1
          -1           2           0          -1          -1           2
           0           0           0           0
Number of primitives per shell             I   N=          28
           6           3           1           1           6           3
           1           1           6           3           1           1
           6           3           1           1           6           3
           1           1           6           3           1           1
           3           1           3           1
Shell to atom map                          I   N=          28
           1           1           1           1           2           2
           2           2           3           3           3           3
           4           4           4           4           5           5
           5           5           6           6           6           6
           7           7           8           8
Primitive exponents                        R   N=          74
  5.48467166E+03  8.25234946E+02  1.88046958E+02  5.29645000E+01  1.68975704E+01
  5.79963534E+00  1.55396162E+01  3.59993359E+00  1.01376175E+00  2.70005823E-01
  8.00000000E-01  5.48467166E+03  8.25234946E+02  1.88046958E+02  5.29645000E+01
  1.68975704E+01  5.79963534E+00  1.55396162E+01  3.59993359E+00  1.01376175E+00
  2.70005823E-01  8.00000000E-01  5.48467166E+03  8.25234946E+02  1.88046958E+02
  5.29645000E+01  1.68975704E+01  5.79963534E+00  1.55396162E+01  3.59993359E+00
  1.01376175E+00  2.70005823E-01  8.00000000E-01  5.48467166E+03  8.25234946E+02
  1.88046958E+02  5.29645000E+01  1.68975704E+01  5.79963534E+00  1.55396162E+01
  3.59993359E+00  1.01376175E+00  2.70005823E-01  8.00000000E-01  3.04752488E+03
  4.57369518E+02  1.03948685E+02  2.92101553E+01  9.28666296E+00  3.16392696E+00
  7.86827235E+00  1.88128854E+00  5.44249258E-01  1.68714478E-01  8.00000000E-01
  3.04752488E+03  4.57369518E+02  1.03948685E+02  2.92101553E+01  9.28666296E+00
  3.16392696E+00  7.86827235E+00  1.88128854E+00  5.44249258E-01  1.68714478E-01
  8.00000000E-01  1.87311370E+01  2.82539436E+00  6.40121692E-01  1.61277759E-01
  1.87311370E+01  2.82539436E+00  6.40121692E-01  1.61277759E-01
Contraction coefficients                   R   N=          74
  1.83107443E-03  1.39501722E-02  6.84450781E-02  2.32714336E-01  4.70192898E-01
  3.58520853E-01 -1.10777550E-01 -1.48026263E-01  1.13076702E+00  1.00000000E+00
  1.00000000E+00  1.83107443E-03  1.39501722E-02  6.84450781E-02  2.32714336E-01
  4.70192898E-01  3.58520853E-01 -1.10777550E-01 -1.48026263E-01  1.13076702E+00
  1.00000000E+00  1.00000000E+00  1.83107443E-03  1.39501722E-02  6.84450781E-02
  2.32714336E-01  4.70192898E-01  3.58520853E-01 -1.10777550E-01 -1.48026263E-01
  1.13076702E+00  1.00000000E+00  1.00000000E+00  1.83107443E-03  1.39501722E-02
  6.84450781E-02  2.32714336E-01  4.70192898E-01  3.58520853E-01 -1.10777550E-01
 -1.48026263E-01  1.13076702E+00  1.00000000E+00  1.00000000E+00  1.83473713E-03
  1.40373228E-02  6.88426223E-02  2.32184443E-01  4.67941348E-01  3.62311985E-01
 -1.19332420E-01 -1.60854152E-01  1.14345644E+00  1.00000000E+00  1.00000000E+00
  1.83473713E-03  1.40373228E-02  6.88426223E-02  2.32184443E-01  4.67941348E-01
  3.62311985E-01 -1.19332420E-01 -1.60854152E-01  1.14345644E+00  1.00000000E+00
  1.00000000E+00  3.34946043E-02  2.34726953E-01  8.13757326E-01  1.00000000E+00
  3.34946043E-02  2.34726953E-01  8.13757326E-01  1.00000000E+00
P(S=P) Contraction coefficients            R   N=          74
  0.00000000E+00  0.00000000E+00  0.00000000E+00  0.00000000E+00  0.00000000E+00
  0.00000000E+00  7.08742682E-02  3.39752839E-01  7.27158577E-01  1.00000000E+00
  0.00000000E+00  0.00000000E+00  0.00000000E+00  0.00000000E+00  0.00000000E+00
  0.00000000E+00  0.00000000E+00  7.08742682E-02  3.39752839E-01  7.27158577E-01
  1.00000000E+00  0.00000000E+00  0.00000000E+00  0.00000000E+00  0.00000000E+00
  0.00000000E+00  0.00000000E+00  0.00000000E+00  7.08742682E-02  3.39752839E-01
  7.27158577E-01  1.00000000E+00  0.00000000E+00  0.00000000E+00  0.00000000E+00
  0.00000000E+00  0.00000000E+00  0.00000000E+00  0.00000000E+00  7.08742682E-02
  3.39752839E-01  7.27158577E-01  1.00000000E+00  0.00000000E+00  0.00000000E+00
  0.00000000E+00  0.00000000E+00  0.00000000E+00  0.00000000E+00  0.00000000E+00
  6.89990666E-02  3.16423961E-01  7.44308291E-01  1.00000000E+00  0.00000000E+00
  0.00000000E+00  0.00000000E+00  0.00000000E+00  0.00000000E+00  0.00000000E+00
  0.00000000E+00  6.89990666E-02  3.16423961E-01  7.44308291E-01  1.00000000E+00
  0.00000000E+00  0.00000000E+00  0.00000000E+00  0.00000000E+00  0.00000000E+00
  0.00000000E+00  0.00000000E+00  0.00000000E+00  0.00000000E+00
Coordinates of each shell                  R   N=          84
 -2.77946007E+00  1.83384780E+00  5.55721706E-04 -2.77946007E+00  1.83384780E+00
  5.55721706E-04 -2.77946007E+00  1.83384780E+00  5.55721706E-04 -2.77946007E+00
  1.83384780E+00  5.55721706E-04  2.77945896E+00 -1.83384809E+00  5.08794137E-04
  2.77945896E+00 -1.83384809E+00  5.08794137E-04  2.77945896E+00 -1.83384809E+00
  5.08794137E-04  2.77945896E+00 -1.83384809E+00  5.08794137E-04 -2.28519954E+00
 -2.41604411E+00 -3.60365844E-05 -2.28519954E+00 -2.41604411E+00 -3.60365844E-05
 -2.28519954E+00 -2.41604411E+00 -3.60365844E-05 -2.28519954E+00 -2.41604411E+00
 -3.60365844E-05  2.28520004E+00  2.41604448E+00 -1.54299425E-04  2.28520004E+00
  2.41604448E+00 -1.54299425E-04  2.28520004E+00  2.41604448E+00 -1.54299425E-04
  2.28520004E+00  2.41604448E+00 -1.54299425E-04 -1.42091728E+00 -3.07813822E-01
 -7.15701155E-04 -1.42091728E+00 -3.07813822E-01 -7.15701155E-04 -1.42091728E+00
 -3.07813822E-01 -7.15701155E-04 -1.42091728E+00 -3.07813822E-01 -7.15701155E-04
  1.42091849E+00  3.07813337E-01 -8.72081662E-04  1.42091849E+00  3.07813337E-01
 -8.72081662E-04  1.42091849E+00  3.07813337E-01 -8.72081662E-04  1.42091849E+00
  3.07813337E-01 -8.72081662E-04 -4.55143632E+00  1.32190711E+00  1.31350000E-03
 -4.55143632E+00  1.32190711E+00  1.31350000E-03  4.55143388E+00 -1.32190485E+00
  1.21975824E-03  4.55143388E+00 -1.32190485E+00  1.21975824E-03
Alpha Orbital Energies                     R   N=          94
 -1.92222382E+01 -1.92222361E+01 -1.91693163E+01 -1.91693130E+01 -1.03509323E+01
 -1.03507444E+01 -1.14404442E+00 -1.12150215E+00 -1.05176737E+00 -1.03767409E+00
 -7.31113803E-01 -6.37443366E-01 -5.33692702E-01 -5.02688893E-01 -5.01400267E-01
 -4.93278388E-01 -4.45158126E-01 -4.39219752E-01 -4.10901266E-01 -3.45900078E-01
 -3.39694397E-01 -3.38288880E-01 -2.81565847E-01 -7.23470612E-02  5.20906753E-02
  6.60490116E-02  7.16496046E-02  2.09513435E-01  2.32939292E-01  2.57158674E-01
  3.26273341E-01  4.15846710E-01  4.92857298E-01  5.39416347E-01  5.94727009E-01
  6.13431631E-01  6.22036293E-01  6.46835334E-01  6.85795141E-01  7.44871719E-01
  7.64727583E-01  8.16802978E-01  8.61362354E-01  8.73910639E-01  8.93643180E-01
  9.19619500E-01  9.40557522E-01  9.59064756E-01  9.77480853E-01  1.02153021E+00
  1.07036328E+00  1.11669958E+00  1.15271043E+00  1.22235741E+00  1.28904349E+00
  1.34565343E+00  1.40983596E+00  1.42114646E+00  1.55384351E+00  1.56537526E+00
  1.62797642E+00  1.64954515E+00  1.71129555E+00  1.74390837E+00  1.74897268E+00
  1.79852513E+00  1.80469785E+00  1.82535590E+00  1.86742462E+00  1.92026779E+00
  1.93588201E+00  1.96677186E+00  2.07966670E+00  2.18357750E+00  2.23860101E+00
  2.33456145E+00  2.37012924E+00  2.40894572E+00  2.54372789E+00  2.60244519E+00
  2.64128395E+00  2.68509166E+00  2.75060963E+00  2.79934107E+00  2.90422716E+00
  2.96455569E+00  3.07595824E+00  3.21515384E+00  3.68162965E+00  3.94389970E+00
  4.01382376E+00  4.03571733E+00  4.55884285E+00  4.70905290E+00
Alpha MO coefficients                      R   N=        8836
 -6.44541603E-01 -1.66445576E-02  3.32216479E-04  5.91674353E-04  1.18064712E-08
 -8.98236947E-03 -7.96753535E-04  5.16970100E-04  5.22211676E-07  5.33944918E-03
  5.38250980E-03  5.39436217E-03  9.04497381E-05  6.40949520E-08 -1.25125528E-08
  7.54963687E-01  1.95238805E-02  3.77173726E-04  6.92883361E-04 -8.51822187E-08
  1.04252949E-02 -8.55763866E-04  5.87289663E-04 -5.91251728E-07 -6.24461074E-03
 -6.28497806E-03 -6.29224223E-03 -9.41159921E-05  6.43291956E-08 -1.38854881E-08
  2.67310404E-05 -3.90332827E-05  1.25443854E-05  3.60484019E-06  9.64554588E-08
  2.75965447E-04  1.05907504E-04 -9.38828862E-06 -4.29013626E-07  1.40923292E-05
  6.17456848E-05  2.88492433E-05 -2.81070182E-05 -5.26562045E-08  3.12621958E-09
 -3.15932458E-05  9.23914852E-05 -4.36791215E-07  7.50359236E-06 -1.08453807E-07
 -6.01900749E-04  1.89118078E-04  4.48308112E-05  5.33348672E-07  1.76539053E-05
 -3.95388650E-05  1.15580244E-05  2.17192171E-05 -6.24344892E-08 -4.55835170E-09
  2.39565546E-07 -2.20244425E-04  1.16981484E-04 -2.03131557E-04 -6.10500528E-08
  2.22494918E-03 -1.40047307E-04  1.51045349E-03  8.56018386E-07 -6.57804655E-06
  1.44744516E-05  1.73032146E-05 -3.80972478E-05 -4.44384188E-08  1.00192520E-07
  4.42078688E-06  2.88421385E-04  1.35618435E-04 -2.29990175E-04  9.63872342E-08
 -2.33616211E-03 -2.07273128E-04  1.90510905E-03 -1.06178356E-06 -1.55147742E-06
 -5.26689873E-07 -1.40662252E-05  4.14336647E-05 -4.44107204E-08  1.02449834E-07
 -3.02050827E-04  6.20220464E-04  3.44094760E-04 -7.40815094E-04  7.54999079E-01
  1.96742568E-02 -3.12899798E-04 -6.92069007E-04 -7.91754782E-08  9.90999626E-03
  4.39158153E-04 -4.89198117E-04 -4.58130905E-07 -6.19335798E-03 -6.17958239E-03
 -6.15125444E-03 -3.05111618E-05 -2.91033168E-09  3.35263263E-08  6.44583057E-01
  1.68206951E-02  2.56931092E-04  5.90723123E-04 -1.13867875E-07  8.37880385E-03
 -3.08780835E-04  4.02076766E-04 -4.38327509E-07 -5.27941677E-03 -5.25905900E-03
 -5.22922311E-03 -1.59500882E-05  5.10166799E-09 -3.26252974E-08 -3.31194331E-05
  3.43338060E-04  8.17882124E-05 -2.51469724E-05 -4.43810537E-08 -2.10022278E-03
 -5.38980520E-04 -3.45010574E-04  4.43079767E-07  2.01328636E-04  1.36737346E-04
  2.55396693E-04 -3.85191132E-05  4.97332225E-08  3.55647772E-08 -2.85176463E-05
  3.32968988E-04 -8.27434849E-05  2.42703630E-05 -3.83525400E-08 -2.03096239E-03
  5.15702831E-04  3.42214385E-04  4.19742796E-07  2.01048169E-04  1.44728289E-04
  2.56760615E-04 -4.24497408E-05 -5.24555177E-08 -3.77825372E-08  2.96995694E-05
  4.52123834E-04 -1.28078458E-04  1.87301025E-04  1.57801530E-07 -8.84713945E-04
  4.39748452E-04 -2.63583227E-03 -4.89945809E-07 -5.13150373E-05  8.78151666E-05
  1.92787691E-05  2.42734687E-05 -1.15566384E-08  7.02158619E-10  2.93697129E-05
  4.11992736E-04  1.08148381E-04 -1.53129326E-04  1.59811668E-07 -5.24863669E-04
 -4.12343033E-04  2.36635917E-03 -3.82456363E-07 -5.17119023E-05  8.89968989E-05
  2.17535424E-05  1.79997439E-05  1.72817844E-08 -1.00425433E-08  2.91941114E-04
 -8.17951649E-04  2.40962335E-04 -7.10570549E-04  1.96851586E-04  4.09258681E-04
  7.62291929E-05 -6.79558484E-06 -1.21662790E-07 -2.82892106E-03 -7.46841688E-04
  4.31247707E-04  9.76316895E-07  2.88852351E-04  2.02325142E-04  2.33495526E-04
  2.12331808E-05  4.49658132E-08 -3.80066505E-08  1.96885983E-04  4.09142414E-04
 -7.62494346E-05  6.76378249E-06 -1.55668115E-07 -2.82838407E-03  7.47309268E-04
 -4.30506921E-04  1.14934576E-06  2.88774538E-04  2.02224077E-04  2.33286549E-04
  2.11292713E-05 -7.25733299E-08  4.59681634E-08  7.01079391E-01  1.77339411E-02
  3.03646554E-04  8.26867123E-04 -2.26484645E-07  1.31444481E-02  9.05651815E-04
  1.69232605E-03 -1.03667337E-06 -5.98675150E-03 -5.63153766E-03 -5.99024221E-03
  2.20183772E-04 -1.08589114E-07 -2.17615838E-07  7.02683147E-01  1.77750759E-02
 -3.04297527E-04 -8.28704189E-04 -2.30783179E-07  1.31687942E-02 -9.06799736E-04
 -1.69545396E-03 -1.14563280E-06 -5.99998196E-03 -5.64402722E-03 -6.00377735E-03
  2.20636078E-04  1.36409338E-07  2.29689494E-07 -1.50967705E-05  2.72738608E-04
  1.12135041E-05  1.02419468E-04 -2.56857223E-08 -2.93282895E-03  4.20986700E-04
  5.91649178E-03 -2.43163803E-07 -1.34208205E-04 -6.18590692E-04 -5.49721697E-05
 -3.19976155E-04  5.22339530E-08  2.93555808E-07 -1.51493281E-05  2.73239433E-04
 -1.12812513E-05 -1.02566457E-04 -2.11479067E-08 -2.93690380E-03 -4.25151104E-04
 -5.92111626E-03 -3.23046591E-07 -1.34564106E-04 -6.20063494E-04 -5.51150419E-05
 -3.20519453E-04 -5.10014001E-08 -3.30117486E-07  1.82877246E-05 -1.10988626E-04
  1.82195449E-05 -1.10852733E-04  1.55745925E-05 -5.05908382E-05  8.94998582E-06
  1.40015857E-05 -5.60152417E-08  2.33669414E-04 -2.06314395E-04 -3.24101295E-04
  2.42463012E-07 -3.39372252E-05 -4.41923589E-05 -9.12149652E-05 -4.51782822E-05
 -1.25734906E-08  6.86635143E-08 -1.51246245E-05  5.15256345E-05  8.77582112E-06
  1.40168537E-05  5.44245073E-08 -2.40130817E-04 -2.04606622E-04 -3.25085770E-04
 -2.16472249E-07  3.45967643E-05  4.46540650E-05  9.17482266E-05  4.52270651E-05
 -1.35723969E-08  8.51595210E-08  7.02740899E-01  1.80242705E-02  2.85633023E-04
  8.05140419E-04 -2.80306290E-07  1.06729995E-02  5.04043869E-04  1.37129208E-03
 -3.07066658E-07 -5.79778142E-03 -5.47296043E-03 -5.93133285E-03  1.98418928E-04
 -6.92804367E-08 -1.23468146E-07 -7.01137276E-01 -1.79837061E-02  2.84937535E-04
  8.03248850E-04  3.03745617E-07 -1.06429339E-02  5.01972823E-04  1.36742043E-03
  3.38670951E-07  5.78408748E-03  5.46007945E-03  5.91763058E-03 -1.97914964E-04
 -6.12593246E-08 -1.34952986E-07 -2.30609722E-05  2.19025022E-04  2.97453786E-05
  6.49308847E-05 -1.84680105E-08 -1.78809334E-03  1.82461011E-03  2.03040063E-03
 -1.30479815E-06 -1.56125944E-04 -6.45466010E-04 -6.26221990E-05 -2.38587431E-04
  1.20304191E-07  2.41256582E-07  2.30264504E-05 -2.18401922E-04  2.97194991E-05
  6.46956312E-05  3.00720938E-08  1.78138437E-03  1.82364115E-03  2.01687546E-03
  1.22177568E-06  1.55818692E-04  6.44050739E-04  6.24965609E-05  2.37854889E-04
  1.34573736E-07  2.56697027E-07 -3.01464493E-05  5.93854803E-05  3.01877030E-05
 -5.96395830E-05 -8.47416189E-05 -7.95155733E-05 -1.41336657E-04  4.38577254E-05
  9.73381669E-08  1.02485693E-03  5.09314538E-04  7.18655504E-04 -1.51067050E-07
 -1.60907856E-04 -4.68941344E-04  8.68288522E-05  2.25405545E-04  2.01441111E-07
 -3.15343153E-07 -8.47302580E-05 -7.92587521E-05  1.41355941E-04 -4.38551204E-05
  1.08681179E-07  1.02400886E-03 -5.09240996E-04 -7.19528605E-04 -1.46464257E-07
 -1.60875298E-04 -4.69126066E-04  8.71174323E-05  2.25573627E-04 -2.08553194E-07
  3.54570813E-07 -4.14321345E-05  5.79133513E-04 -4.82090917E-05  5.29811928E-05
 -8.07815354E-08 -4.64353648E-03 -5.08630671E-04 -1.85014684E-03  1.06637066E-06
  4.07674988E-04  1.16591145E-04  3.52584625E-04 -7.90115911E-05  9.16779749E-08
  1.95031566E-07 -4.14597143E-05  5.79450863E-04  4.82373221E-05 -5.30056123E-05
 -1.10131216E-07 -4.64542515E-03  5.08496644E-04  1.85124237E-03  1.23646711E-06
  4.07869189E-04  1.16532474E-04  3.52886265E-04 -7.90357087E-05 -1.23831111E-07
 -2.23446252E-07  7.01787649E-01  3.39885903E-02 -6.30838757E-04  8.13013562E-05
  5.55942258E-07 -1.23809218E-03 -9.67773996E-04 -3.78653389E-03  7.91131932E-08
 -6.74156839E-03 -5.95439808E-03 -6.95617111E-03  1.78978544E-05 -3.00210828E-07
 -8.46026267E-09  7.02185171E-01  3.40081495E-02  6.31040874E-04 -8.13941523E-05
  5.67847893E-07 -1.24340159E-03  9.71404002E-04  3.78754111E-03  2.82827328E-08
 -6.74493114E-03 -5.95749601E-03 -6.95989054E-03  1.79479872E-05  3.44853840E-07
  1.61997532E-08  1.85537544E-04  2.69627806E-04  1.85648051E-04  2.69465872E-04
  2.01196602E-05  4.51857315E-04 -3.41454262E-05 -4.99584933E-06 -1.40967786E-08
 -1.48773464E-03 -1.27465402E-04  1.53712310E-03  6.90768045E-07  5.69958987E-05
 -3.26830308E-04  5.07367982E-04  2.97090024E-04  2.64242649E-07 -5.34032888E-07
 -2.01676007E-05 -4.51903456E-04 -3.40655081E-05 -5.02017920E-06  2.29686369E-08
  1.48832297E-03 -1.27756727E-04  1.53671926E-03 -8.44797755E-07 -5.70870532E-05
  3.26564630E-04 -5.07319933E-04 -2.96962535E-04  2.56644681E-07 -6.20741216E-07
 -4.91009983E-05  5.62526659E-04 -4.92623534E-05  4.37106572E-05 -3.62789771E-08
 -3.34875316E-03  2.33716436E-04 -1.93823943E-03  6.18244958E-07  3.44010385E-04
 -1.02490754E-04  5.33913000E-04 -4.22426636E-05  3.31680973E-08  2.68020372E-07
  4.90775398E-05 -5.62196791E-04 -4.92351825E-05  4.36803578E-05  5.01534452E-08
  3.34610835E-03  2.34005855E-04 -1.93718777E-03 -8.03362745E-07 -3.43778123E-04
  1.02557810E-04 -5.33712538E-04  4.21981408E-05  1.21976136E-08  3.29558621E-07
  7.02435617E-01  3.45616917E-02 -3.54943914E-04  1.57649180E-04  5.47858253E-07
 -9.38682600E-03 -6.42240401E-03 -1.78463228E-03  1.22629283E-06 -5.94169079E-03
 -5.47639111E-03 -6.57183040E-03  9.16055508E-05 -4.41907531E-07  7.81229350E-08
 -7.02038237E-01 -3.45424465E-02 -3.54587844E-04  1.57606888E-04 -6.22744876E-07
  9.38612788E-03 -6.42185206E-03 -1.78247636E-03 -6.02229986E-07  5.93787418E-03
  5.47301790E-03  6.56789171E-03 -9.15938932E-05 -4.48467013E-07  1.10346855E-07
  1.93482129E-04 -2.88891328E-04 -1.93377503E-04  2.89044876E-04 -1.08499249E-01
  2.42537749E-01 -2.86061220E-03 -7.52871811E-02 -1.62513174E-05  2.19240526E-01
 -7.33794428E-03 -3.77427618E-02 -6.06224614E-06  8.11411125E-03  7.55324599E-03
 -4.67334578E-03 -5.91010778E-04 -7.18460798E-06  4.38442524E-06 -1.08501870E-01
  2.42543548E-01  2.86091416E-03  7.52890091E-02 -2.02048854E-05  2.19246048E-01
  7.33805961E-03  3.77436521E-02 -7.79288675E-06  8.11425677E-03  7.55337946E-03
 -4.67349226E-03 -5.90974148E-04  7.02027435E-06 -5.19977097E-06 -7.40359135E-02
  1.60851330E-01  2.40463002E-02  6.92384578E-02 -1.50600333E-05  1.42239187E-01
  3.27499637E-03  2.62150629E-02 -3.87404917E-06 -3.21856354E-03  5.57175402E-03
 -2.51806138E-03  3.03510019E-03  9.40937118E-07 -2.13161513E-06 -7.40367267E-02
  1.60853099E-01 -2.40463784E-02 -6.92393168E-02 -1.55423746E-05  1.42240795E-01
 -3.27492545E-03 -2.62154906E-02 -3.68050761E-06 -3.21864311E-03  5.57187560E-03
 -2.51809864E-03  3.03511198E-03 -9.41315838E-07  2.14310417E-06 -9.27546486E-02
  1.81746246E-01 -4.42925563E-02 -8.16869974E-04  6.04201871E-05  3.95139831E-02
  1.62351196E-02  4.87878016E-03 -5.19511916E-06 -4.89821721E-04  1.08101735E-02
 -1.57302228E-02 -1.80544158E-03 -7.19227715E-06  3.94648379E-06 -9.27559722E-02
  1.81748824E-01  4.42941619E-02  8.15949876E-04  6.66947650E-05  3.95144845E-02
 -1.62353819E-02 -4.87869868E-03 -6.90044207E-06 -4.90004676E-04  1.08103843E-02
 -1.57304702E-02 -1.80564543E-03  7.05327575E-06 -4.55701349E-06  5.99116713E-02
 -3.20099801E-03  5.99132691E-02 -3.20107496E-03 -1.22174170E-01  2.69402931E-01
 -1.51917794E-02 -8.13653460E-02 -1.48239982E-05  2.63573565E-01 -5.44081606E-03
 -4.39859514E-02 -6.59488066E-06  7.28267727E-03  6.17951187E-03 -7.24004746E-03
 -1.93866860E-04 -8.16129800E-06  4.35173532E-06  1.22172511E-01 -2.69399216E-01
 -1.51918399E-02 -8.13642588E-02  1.95292913E-05 -2.63570279E-01 -5.44071477E-03
 -4.39853524E-02  8.96939245E-06 -7.28252473E-03 -6.17938070E-03  7.23997740E-03
  1.93807106E-04 -7.91321016E-06  5.36122456E-06 -6.72364766E-02  1.45625176E-01
  1.44000321E-02  6.41856798E-02 -1.40973197E-05  1.32956351E-01 -5.99950591E-04
  2.75174290E-02  1.64073619E-06 -4.75075684E-03  6.55325700E-03 -2.93761362E-03
  2.10389284E-03  1.14175702E-06 -1.97711825E-06  6.72345149E-02 -1.45620937E-01
  1.43993588E-02  6.41839388E-02  1.48434665E-05 -1.32952397E-01 -6.00093959E-04
  2.75167893E-02 -1.33416111E-06  4.75067088E-03 -6.55315224E-03  2.93754403E-03
 -2.10380250E-03  1.15981480E-06 -2.19160371E-06 -7.54385113E-02  1.47390893E-01
 -8.82947283E-02  6.39987976E-03  6.01224699E-05  3.46148331E-02  2.04484938E-02
 -8.66963160E-04 -2.45814487E-05 -1.06472555E-02  1.07685033E-02 -1.38422350E-02
 -6.19999597E-03 -9.07646661E-06  5.12393367E-06  7.54366124E-02 -1.47387161E-01
 -8.82938583E-02  6.40078465E-03 -6.32908201E-05 -3.46140370E-02  2.04481336E-02
 -8.67363073E-04  2.41518628E-05  1.06472262E-02 -1.07682937E-02  1.38419182E-02
  6.20008506E-03 -1.01654307E-05  5.52071717E-06  7.20428767E-02 -1.29945332E-03
 -7.20420631E-02  1.29943725E-03 -8.04627520E-02  1.80031602E-01 -8.86701718E-03
 -3.10278869E-02 -7.08381694E-06  1.77026597E-01 -3.30924171E-03 -8.21901111E-03
 -3.33592689E-06  7.71723327E-03 -3.27580352E-03 -3.17906550E-03  2.15042917E-03
 -5.88799835E-06 -7.13350772E-08  8.04631769E-02 -1.80032523E-01 -8.86716298E-03
 -3.10280436E-02  9.72641018E-06 -1.77027817E-01 -3.30926596E-03 -8.21906901E-03