Alanine radical                                                         
SP        UB3LYP                                                      6-31G(d)            
Number of atoms                            I               12
Charge                                     I                0
Multiplicity                               I                2
Number of electrons                        I               47
Number of alpha electrons                  I               24
Number of beta electrons                   I               23
Number of basis functions                  I              102
Number of independant functions            I              102
Number of point charges in /Mol/           I                0
Number of translation vectors              I                0
Info1-9                                    I   N=           9
          21          21           0           0           0         110
           1          18        -502
Num ILSW                                   I              100
ILSW                                       I   N=         100
           1           1           0           0           2           0
           0           0           0           0         402      200000
           0           0           0           0           0           0
           0      800000           0           0           0           0
           1           0           0           0     1000000           0
           0           0      100000           0          -1           0
           0           0           0           0           0           0
           0           0           0           1           0           0
           0           0           1      720000      810000           0
           0           0           0           0           0           0
           0           0           0           0           0           0
           0           0           0           0           0           0
           0           0           0           0           0           0
           0           0           0           0           0           0
           0           0           0           0           0           0
           0           0           0           0           0           0
           0           0           0           0
Number of contracted shells                I               36
Highest angular momentum                   I                2
Largest degree of contraction              I                6
Number of primitive shells                 I               90
Pure/Cartesian d shells                    I                1
Pure/Cartesian f shells                    I                0
Virial Ratio                               R      2.009023765044653E+00
SCF Energy                                 R     -3.230669556835391E+02
Total Energy                               R     -3.230669556835391E+02
S**2                                       R      7.555269429348428E-01
S**2 after annihilation                    R      7.500203965238029E-01
RMS Density                                R      9.678390503981211E-09
Atomic numbers                             I   N=          12
           8           8           7           6           6           6
           1           1           1           1           1           1
Nuclear charges                            R   N=          12
  8.00000000E+00  8.00000000E+00  7.00000000E+00  6.00000000E+00  6.00000000E+00
  6.00000000E+00  1.00000000E+00  1.00000000E+00  1.00000000E+00  1.00000000E+00
  1.00000000E+00  1.00000000E+00
Current cartesian coordinates              R   N=          36
 -2.92774922E+00  2.01431932E+00  1.43332800E-01 -2.65182397E+00 -1.98539243E+00
 -4.25374036E-01  2.05837855E+00 -2.49633834E+00  3.09605302E-02  1.24212943E+00
  3.30853855E-02  7.36848600E-01  2.64837029E+00  2.25659437E+00 -4.72274632E-01
 -1.57075996E+00  1.10432989E-01  1.43168305E-01  1.39300764E+00  1.78711171E-01
  2.80168098E+00  1.73693441E+00  4.03942159E+00  5.49850513E-02  4.62247922E+00
  2.30946977E+00  1.46454832E-01  2.61307989E+00  2.11208968E+00 -2.53897952E+00
  3.60392023E+00 -3.10792338E+00  9.86407708E-01  2.34007567E+00 -2.68949196E+00
 -1.85739651E+00
Int Atom Types                             I   N=          12
           0           0           0           0           0           0
           0           0           0           0           0           0
Force Field                                I                0
MM charges                                 R   N=          12
  0.00000000E+00  0.00000000E+00  0.00000000E+00  0.00000000E+00  0.00000000E+00
  0.00000000E+00  0.00000000E+00  0.00000000E+00  0.00000000E+00  0.00000000E+00
  0.00000000E+00  0.00000000E+00
Integer atomic weights                     I   N=          12
          16          16          14          12          12          12
           1           1           1           1           1           1
Real atomic weights                        R   N=          12
  1.59949146E+01  1.59949146E+01  1.40030740E+01  1.20000000E+01  1.20000000E+01
  1.20000000E+01  1.00782504E+00  1.00782504E+00  1.00782504E+00  1.00782504E+00
  1.00782504E+00  1.00782504E+00
Atom residue info                          I   N=          12
           0           0           0           0           0           0
           0           0           0           0           0           0
Atom fragment info                         I   N=          12
           0           0           0           0           0           0
           0           0           0           0           0           0
Atom residue num                           I   N=          12
           0           0           0           0           0           0
           0           0           0           0           0           0
Nuclear spins                              I   N=          12
           0           0           2           0           0           0
           1           1           1           1           1           1
Nuclear ZEff                               R   N=          12
 -5.60000000E+00 -5.60000000E+00 -4.55000000E+00 -3.60000000E+00 -3.60000000E+00
 -3.60000000E+00 -1.00000000E+00 -1.00000000E+00 -1.00000000E+00 -1.00000000E+00
 -1.00000000E+00 -1.00000000E+00
Nuclear QMom                               R   N=          12
  0.00000000E+00  0.00000000E+00  2.04400000E+00  0.00000000E+00  0.00000000E+00
  0.00000000E+00  0.00000000E+00  0.00000000E+00  0.00000000E+00  0.00000000E+00
  0.00000000E+00  0.00000000E+00
Nuclear GFac                               R   N=          12
  0.00000000E+00  0.00000000E+00  4.03761000E-01  0.00000000E+00  0.00000000E+00
  0.00000000E+00  2.79284600E+00  2.79284600E+00  2.79284600E+00  2.79284600E+00
  2.79284600E+00  2.79284600E+00
MicOpt                                     I   N=          12
          -1          -1          -1          -1          -1          -1
          -1          -1          -1          -1          -1          -1
Constraint Structure                       R   N=          36
 -2.92774922E+00  2.01431932E+00  1.43332800E-01 -2.65182397E+00 -1.98539243E+00
 -4.25374036E-01  2.05837855E+00 -2.49633834E+00  3.09605302E-02  1.24212943E+00
  3.30853855E-02  7.36848600E-01  2.64837029E+00  2.25659437E+00 -4.72274632E-01
 -1.57075996E+00  1.10432989E-01  1.43168305E-01  1.39300764E+00  1.78711171E-01
  2.80168098E+00  1.73693441E+00  4.03942159E+00  5.49850513E-02  4.62247922E+00
  2.30946977E+00  1.46454832E-01  2.61307989E+00  2.11208968E+00 -2.53897952E+00
  3.60392023E+00 -3.10792338E+00  9.86407708E-01  2.34007567E+00 -2.68949196E+00
 -1.85739651E+00
ONIOM Charges                              I   N=          16
           0           0           0           0           0           0
           0           0           0           0           0           0
           0           0           0           0
ONIOM Multiplicities                       I   N=          16
           2           0           0           0           0           0
           0           0           0           0           0           0
           0           0           0           0
Atom Layers                                I   N=          12
           1           1           1           1           1           1
           1           1           1           1           1           1
Atom Modifiers                             I   N=          12
           0           0           0           0           0           0
           0           0           0           0           0           0
Int Atom Modified Types                    I   N=          12
           0           0           0           0           0           0
           0           0           0           0           0           0
Link Atoms                                 I   N=          12
           0           0           0           0           0           0
           0           0           0           0           0           0
Atom Modified MM Charges                   R   N=          12
  0.00000000E+00  0.00000000E+00  0.00000000E+00  0.00000000E+00  0.00000000E+00
  0.00000000E+00  0.00000000E+00  0.00000000E+00  0.00000000E+00  0.00000000E+00
  0.00000000E+00  0.00000000E+00
Link Distances                             R   N=          48
  0.00000000E+00  0.00000000E+00  0.00000000E+00  0.00000000E+00  0.00000000E+00
  0.00000000E+00  0.00000000E+00  0.00000000E+00  0.00000000E+00  0.00000000E+00
  0.00000000E+00  0.00000000E+00  0.00000000E+00  0.00000000E+00  0.00000000E+00
  0.00000000E+00  0.00000000E+00  0.00000000E+00  0.00000000E+00  0.00000000E+00
  0.00000000E+00  0.00000000E+00  0.00000000E+00  0.00000000E+00  0.00000000E+00
  0.00000000E+00  0.00000000E+00  0.00000000E+00  0.00000000E+00  0.00000000E+00
  0.00000000E+00  0.00000000E+00  0.00000000E+00  0.00000000E+00  0.00000000E+00
  0.00000000E+00  0.00000000E+00  0.00000000E+00  0.00000000E+00  0.00000000E+00
  0.00000000E+00  0.00000000E+00  0.00000000E+00  0.00000000E+00  0.00000000E+00
  0.00000000E+00  0.00000000E+00  0.00000000E+00
MxBond                                     I                4
NBond                                      I   N=          12
           1           1           3           4           4           3
           1           1           1           1           1           1
IBond                                      I   N=          48
           6           0           0           0           6           0
           0           0           4          11          12           0
           3           5           6           7           4           8
           9          10           1           2           4           0
           4           0           0           0           5           0
           0           0           5           0           0           0
           5           0           0           0           3           0
           0           0           3           0           0           0
RBond                                      R   N=          48
  2.00000000E+00  0.00000000E+00  0.00000000E+00  0.00000000E+00  1.00000000E+00
  0.00000000E+00  0.00000000E+00  0.00000000E+00  1.00000000E+00  1.00000000E+00
  1.00000000E+00  0.00000000E+00  1.00000000E+00  1.00000000E+00  1.00000000E+00
  1.00000000E+00  1.00000000E+00  1.00000000E+00  1.00000000E+00  1.00000000E+00
  2.00000000E+00  1.00000000E+00  1.00000000E+00  0.00000000E+00  1.00000000E+00
  0.00000000E+00  0.00000000E+00  0.00000000E+00  1.00000000E+00  0.00000000E+00
  0.00000000E+00  0.00000000E+00  1.00000000E+00  0.00000000E+00  0.00000000E+00
  0.00000000E+00  1.00000000E+00  0.00000000E+00  0.00000000E+00  0.00000000E+00
  1.00000000E+00  0.00000000E+00  0.00000000E+00  0.00000000E+00  1.00000000E+00
  0.00000000E+00  0.00000000E+00  0.00000000E+00
Shell types                                I   N=          36
           0          -1          -1           2           0          -1
          -1           2           0          -1          -1           2
           0          -1          -1           2           0          -1
          -1           2           0          -1          -1           2
           0           0           0           0           0           0
           0           0           0           0           0           0
Number of primitives per shell             I   N=          36
           6           3           1           1           6           3
           1           1           6           3           1           1
           6           3           1           1           6           3
           1           1           6           3           1           1
           3           1           3           1           3           1
           3           1           3           1           3           1
Shell to atom map                          I   N=          36
           1           1           1           1           2           2
           2           2           3           3           3           3
           4           4           4           4           5           5
           5           5           6           6           6           6
           7           7           8           8           9           9
          10          10          11          11          12          12
Primitive exponents                        R   N=          90
  5.48467166E+03  8.25234946E+02  1.88046958E+02  5.29645000E+01  1.68975704E+01
  5.79963534E+00  1.55396162E+01  3.59993359E+00  1.01376175E+00  2.70005823E-01
  8.00000000E-01  5.48467166E+03  8.25234946E+02  1.88046958E+02  5.29645000E+01
  1.68975704E+01  5.79963534E+00  1.55396162E+01  3.59993359E+00  1.01376175E+00
  2.70005823E-01  8.00000000E-01  4.17351146E+03  6.27457911E+02  1.42902093E+02
  4.02343293E+01  1.28202129E+01  4.39043701E+00  1.16263619E+01  2.71627981E+00
  7.72218397E-01  2.12031498E-01  8.00000000E-01  3.04752488E+03  4.57369518E+02
  1.03948685E+02  2.92101553E+01  9.28666296E+00  3.16392696E+00  7.86827235E+00
  1.88128854E+00  5.44249258E-01  1.68714478E-01  8.00000000E-01  3.04752488E+03
  4.57369518E+02  1.03948685E+02  2.92101553E+01  9.28666296E+00  3.16392696E+00
  7.86827235E+00  1.88128854E+00  5.44249258E-01  1.68714478E-01  8.00000000E-01
  3.04752488E+03  4.57369518E+02  1.03948685E+02  2.92101553E+01  9.28666296E+00
  3.16392696E+00  7.86827235E+00  1.88128854E+00  5.44249258E-01  1.68714478E-01
  8.00000000E-01  1.87311370E+01  2.82539436E+00  6.40121692E-01  1.61277759E-01
  1.87311370E+01  2.82539436E+00  6.40121692E-01  1.61277759E-01  1.87311370E+01
  2.82539436E+00  6.40121692E-01  1.61277759E-01  1.87311370E+01  2.82539436E+00
  6.40121692E-01  1.61277759E-01  1.87311370E+01  2.82539436E+00  6.40121692E-01
  1.61277759E-01  1.87311370E+01  2.82539436E+00  6.40121692E-01  1.61277759E-01
Contraction coefficients                   R   N=          90
  1.83107443E-03  1.39501722E-02  6.84450781E-02  2.32714336E-01  4.70192898E-01
  3.58520853E-01 -1.10777550E-01 -1.48026263E-01  1.13076702E+00  1.00000000E+00
  1.00000000E+00  1.83107443E-03  1.39501722E-02  6.84450781E-02  2.32714336E-01
  4.70192898E-01  3.58520853E-01 -1.10777550E-01 -1.48026263E-01  1.13076702E+00
  1.00000000E+00  1.00000000E+00  1.83477216E-03  1.39946270E-02  6.85865518E-02
  2.32240873E-01  4.69069948E-01  3.60455199E-01 -1.14961182E-01 -1.69117479E-01
  1.14585195E+00  1.00000000E+00  1.00000000E+00  1.83473713E-03  1.40373228E-02
  6.88426223E-02  2.32184443E-01  4.67941348E-01  3.62311985E-01 -1.19332420E-01
 -1.60854152E-01  1.14345644E+00  1.00000000E+00  1.00000000E+00  1.83473713E-03
  1.40373228E-02  6.88426223E-02  2.32184443E-01  4.67941348E-01  3.62311985E-01
 -1.19332420E-01 -1.60854152E-01  1.14345644E+00  1.00000000E+00  1.00000000E+00
  1.83473713E-03  1.40373228E-02  6.88426223E-02  2.32184443E-01  4.67941348E-01
  3.62311985E-01 -1.19332420E-01 -1.60854152E-01  1.14345644E+00  1.00000000E+00
  1.00000000E+00  3.34946043E-02  2.34726953E-01  8.13757326E-01  1.00000000E+00
  3.34946043E-02  2.34726953E-01  8.13757326E-01  1.00000000E+00  3.34946043E-02
  2.34726953E-01  8.13757326E-01  1.00000000E+00  3.34946043E-02  2.34726953E-01
  8.13757326E-01  1.00000000E+00  3.34946043E-02  2.34726953E-01  8.13757326E-01
  1.00000000E+00  3.34946043E-02  2.34726953E-01  8.13757326E-01  1.00000000E+00
P(S=P) Contraction coefficients            R   N=          90
  0.00000000E+00  0.00000000E+00  0.00000000E+00  0.00000000E+00  0.00000000E+00
  0.00000000E+00  7.08742682E-02  3.39752839E-01  7.27158577E-01  1.00000000E+00
  0.00000000E+00  0.00000000E+00  0.00000000E+00  0.00000000E+00  0.00000000E+00
  0.00000000E+00  0.00000000E+00  7.08742682E-02  3.39752839E-01  7.27158577E-01
  1.00000000E+00  0.00000000E+00  0.00000000E+00  0.00000000E+00  0.00000000E+00
  0.00000000E+00  0.00000000E+00  0.00000000E+00  6.75797439E-02  3.23907296E-01
  7.40895140E-01  1.00000000E+00  0.00000000E+00  0.00000000E+00  0.00000000E+00
  0.00000000E+00  0.00000000E+00  0.00000000E+00  0.00000000E+00  6.89990666E-02
  3.16423961E-01  7.44308291E-01  1.00000000E+00  0.00000000E+00  0.00000000E+00
  0.00000000E+00  0.00000000E+00  0.00000000E+00  0.00000000E+00  0.00000000E+00
  6.89990666E-02  3.16423961E-01  7.44308291E-01  1.00000000E+00  0.00000000E+00
  0.00000000E+00  0.00000000E+00  0.00000000E+00  0.00000000E+00  0.00000000E+00
  0.00000000E+00  6.89990666E-02  3.16423961E-01  7.44308291E-01  1.00000000E+00
  0.00000000E+00  0.00000000E+00  0.00000000E+00  0.00000000E+00  0.00000000E+00
  0.00000000E+00  0.00000000E+00  0.00000000E+00  0.00000000E+00  0.00000000E+00
  0.00000000E+00  0.00000000E+00  0.00000000E+00  0.00000000E+00  0.00000000E+00
  0.00000000E+00  0.00000000E+00  0.00000000E+00  0.00000000E+00  0.00000000E+00
  0.00000000E+00  0.00000000E+00  0.00000000E+00  0.00000000E+00  0.00000000E+00
Coordinates of each shell                  R   N=         108
 -2.92774922E+00  2.01431932E+00  1.43332800E-01 -2.92774922E+00  2.01431932E+00
  1.43332800E-01 -2.92774922E+00  2.01431932E+00  1.43332800E-01 -2.92774922E+00
  2.01431932E+00  1.43332800E-01 -2.65182397E+00 -1.98539243E+00 -4.25374036E-01
 -2.65182397E+00 -1.98539243E+00 -4.25374036E-01 -2.65182397E+00 -1.98539243E+00
 -4.25374036E-01 -2.65182397E+00 -1.98539243E+00 -4.25374036E-01  2.05837855E+00
 -2.49633834E+00  3.09605302E-02  2.05837855E+00 -2.49633834E+00  3.09605302E-02
  2.05837855E+00 -2.49633834E+00  3.09605302E-02  2.05837855E+00 -2.49633834E+00
  3.09605302E-02  1.24212943E+00  3.30853855E-02  7.36848600E-01  1.24212943E+00
  3.30853855E-02  7.36848600E-01  1.24212943E+00  3.30853855E-02  7.36848600E-01
  1.24212943E+00  3.30853855E-02  7.36848600E-01  2.64837029E+00  2.25659437E+00
 -4.72274632E-01  2.64837029E+00  2.25659437E+00 -4.72274632E-01  2.64837029E+00
  2.25659437E+00 -4.72274632E-01  2.64837029E+00  2.25659437E+00 -4.72274632E-01
 -1.57075996E+00  1.10432989E-01  1.43168305E-01 -1.57075996E+00  1.10432989E-01
  1.43168305E-01 -1.57075996E+00  1.10432989E-01  1.43168305E-01 -1.57075996E+00
  1.10432989E-01  1.43168305E-01  1.39300764E+00  1.78711171E-01  2.80168098E+00
  1.39300764E+00  1.78711171E-01  2.80168098E+00  1.73693441E+00  4.03942159E+00
  5.49850513E-02  1.73693441E+00  4.03942159E+00  5.49850513E-02  4.62247922E+00
  2.30946977E+00  1.46454832E-01  4.62247922E+00  2.30946977E+00  1.46454832E-01
  2.61307989E+00  2.11208968E+00 -2.53897952E+00  2.61307989E+00  2.11208968E+00
 -2.53897952E+00  3.60392023E+00 -3.10792338E+00  9.86407708E-01  3.60392023E+00
 -3.10792338E+00  9.86407708E-01  2.34007567E+00 -2.68949196E+00 -1.85739651E+00
  2.34007567E+00 -2.68949196E+00 -1.85739651E+00
Alpha Orbital Energies                     R   N=         102
 -1.91998922E+01 -1.91688880E+01 -1.43587660E+01 -1.03162003E+01 -1.02493551E+01
 -1.01994616E+01 -1.10759262E+00 -1.00342420E+00 -9.21543996E-01 -7.66941839E-01
 -6.68308411E-01 -5.61548526E-01 -5.25586866E-01 -4.99636737E-01 -4.74726404E-01
 -4.60567388E-01 -4.40032678E-01 -4.18335375E-01 -4.09331113E-01 -3.79961431E-01
 -3.31288185E-01 -3.13034202E-01 -3.09785255E-01 -2.68383627E-01  3.64563407E-03
  6.47041700E-02  1.05134457E-01  1.15911188E-01  1.45153303E-01  1.56709342E-01
  1.58991854E-01  2.07179179E-01  2.28073759E-01  2.51113063E-01  3.33506478E-01
  3.80106651E-01  5.07288855E-01  5.23001070E-01  5.36253765E-01  5.69083857E-01
  5.92985346E-01  6.07557169E-01  6.41243553E-01  6.90121875E-01  6.95338688E-01
  7.28984659E-01  7.60137410E-01  8.07694415E-01  8.14003885E-01  8.59867824E-01
  8.66036406E-01  8.86266642E-01  8.89400923E-01  9.08330373E-01  9.16927176E-01
  9.36052857E-01  9.64789579E-01  1.00514099E+00  1.05254408E+00  1.06912796E+00
  1.10400847E+00  1.13838092E+00  1.30817709E+00  1.33477352E+00  1.43107438E+00
  1.46423288E+00  1.52003817E+00  1.58219378E+00  1.65266350E+00  1.70725709E+00
  1.72750207E+00  1.78832644E+00  1.79823632E+00  1.82070387E+00  1.84152729E+00
  1.86932767E+00  1.93086043E+00  1.98164829E+00  1.99439406E+00  2.04702269E+00
  2.05570544E+00  2.08865233E+00  2.14529891E+00  2.18725109E+00  2.25693321E+00
  2.33678036E+00  2.38674635E+00  2.46382816E+00  2.54484284E+00  2.55754702E+00
  2.62564751E+00  2.67188829E+00  2.78270936E+00  2.85593098E+00  2.98349533E+00
  3.10844073E+00  3.72074737E+00  3.89489185E+00  4.14165417E+00  4.17642834E+00
  4.28540709E+00  4.58481652E+00
Beta Orbital Energies                      R   N=         102
 -1.91829712E+01 -1.91600655E+01 -1.43556565E+01 -1.03171937E+01 -1.02495998E+01
 -1.01994267E+01 -1.08355139E+00 -9.71745116E-01 -9.15638340E-01 -7.65042513E-01
 -6.65631860E-01 -5.57682186E-01 -5.13741601E-01 -4.83364348E-01 -4.60436109E-01
 -4.55888144E-01 -4.31235315E-01 -4.13139797E-01 -3.99575752E-01 -3.76878159E-01
 -2.94746248E-01 -2.74391860E-01 -2.62579716E-01 -1.62317261E-01  7.13677715E-03
  6.62121576E-02  1.05774348E-01  1.17076026E-01  1.46089368E-01  1.57380169E-01
  1.59433255E-01  2.10084367E-01  2.28664533E-01  2.53435222E-01  3.44667325E-01
  3.86655271E-01  5.06702665E-01  5.24346219E-01  5.37292668E-01  5.74890519E-01
  5.94612200E-01  6.12893090E-01  6.48024106E-01  6.93474367E-01  6.98197920E-01
  7.30251143E-01  7.70152025E-01  8.10727977E-01  8.18593149E-01  8.60861345E-01
  8.69730277E-01  8.90310981E-01  8.97069302E-01  9.11239491E-01  9.21098694E-01
  9.39116349E-01  9.69432889E-01  1.01350384E+00  1.06762095E+00  1.08299008E+00
  1.11370263E+00  1.15989309E+00  1.30988168E+00  1.33845066E+00  1.43429777E+00
  1.46727256E+00  1.52818790E+00  1.59081971E+00  1.65957550E+00  1.71485661E+00
  1.74018665E+00  1.80357651E+00  1.82249326E+00  1.84166631E+00  1.85044719E+00
  1.88321492E+00  1.93376462E+00  1.98632551E+00  1.99847335E+00  2.05843343E+00
  2.07411888E+00  2.09813681E+00  2.14862522E+00  2.19088562E+00  2.25937429E+00
  2.34044566E+00  2.39056953E+00  2.46785441E+00  2.54782731E+00  2.56088950E+00
  2.62924290E+00  2.67401637E+00  2.79285259E+00  2.86603695E+00  2.99107086E+00
  3.11801871E+00  3.73213168E+00  3.90803101E+00  4.14794471E+00  4.18392267E+00
  4.28608373E+00  4.58488731E+00
Alpha MO coefficients                      R   N=       10404
 -1.89320592E-04  6.34367157E-05  5.12023776E-05  5.44839055E-05  2.35779983E-05
 -2.19444028E-04 -4.11616350E-04 -2.81323913E-04 -1.47063175E-04  1.42298982E-05
 -3.85040407E-05  5.38663876E-05 -2.49717481E-05 -1.80116201E-05 -2.46618321E-05
  9.92598797E-01  2.59506952E-02  4.08316286E-04  7.89811304E-04  2.10851366E-04
  1.44071315E-02  7.17433412E-04  1.44920373E-03  3.77057409E-04 -8.29158150E-03
 -8.11343200E-03 -8.42899291E-03  3.38149607E-05  4.16786365E-05  6.85806302E-05
  5.25773733E-05  2.10644738E-04 -8.66840269E-05 -4.28330199E-06 -5.51693635E-06
 -1.38179877E-03  4.16598269E-04 -5.12158242E-04 -2.88617618E-05  7.77492773E-05
  9.30947495E-05  1.40058770E-04  2.06041740E-05  3.24921353E-06 -3.18517973E-05
 -8.89844197E-07  3.38759162E-05  1.78985990E-05  1.89686430E-05  3.81468704E-05
  1.13412213E-04  3.80766675E-04 -1.30658304E-03 -5.82045102E-04 -6.82230280E-05
  3.90074994E-05  9.75646477E-07  3.48892720E-06 -1.69108557E-05  3.12904014E-05
  1.63384361E-05  8.33995198E-05 -5.22861943E-05 -9.37182059E-06 -1.35289903E-05
 -3.77500360E-05  2.69249879E-04  1.69294162E-04  4.20078312E-04 -1.03495356E-06
 -8.15165960E-06  5.67884973E-05 -1.68063879E-05 -1.33618918E-05 -2.05655052E-05
 -3.08608320E-06  5.46058398E-04 -1.67232146E-04 -1.68932776E-04 -4.23341011E-05
 -3.05399805E-03  1.91868016E-03  2.97901318E-03  9.12777407E-04 -1.46390972E-04
 -4.06317116E-04 -5.37594318E-05 -2.06168675E-04 -5.28295835E-05 -1.14297612E-04
  3.65611418E-05  2.37053806E-04  3.75416993E-05 -1.35378748E-04 -2.23040566E-05
 -2.27915590E-04  2.64786528E-05  2.69512521E-04 -1.93488851E-06 -1.43447001E-04
  9.07624256E-05 -1.42552737E-05  9.92614688E-01  2.56134469E-02  6.23814750E-04
 -8.90598265E-04 -5.27986720E-07  1.57060206E-02  1.16078170E-03 -1.71256808E-03
 -3.08425378E-05 -8.26636498E-03 -8.03644273E-03 -8.45840981E-03 -2.41599622E-04
  1.22634654E-05  2.99464440E-05  2.22918756E-04  1.24252353E-04  4.57763878E-05
 -4.75495118E-05  1.18777002E-05 -6.88408375E-04 -5.65130883E-04  1.26913710E-04
 -1.39707018E-04  3.82624177E-05 -1.49543696E-05  5.41755539E-05  1.25090838E-05
 -1.00176572E-05 -1.28049835E-05  1.89150567E-05  8.80412571E-05 -5.38134013E-05
  3.18327671E-05 -1.67210184E-05  6.14819539E-05  4.01466993E-04 -4.62750975E-05
  2.83127548E-04 -2.49823406E-05  5.05742279E-05  7.33001837E-05  4.72179704E-05
  1.51657288E-05  5.56914647E-06  2.40920642E-05  1.00102068E-04  4.65798220E-07
 -5.13197223E-05  9.97239403E-06 -1.28300944E-03  6.23463482E-04  9.38458854E-04
 -5.56784836E-06  3.54292985E-05  4.44442743E-05  4.79649563E-05 -1.54268238E-06
 -1.81832915E-05 -6.86987613E-06 -2.36226959E-06 -3.32489109E-05 -1.93764283E-05
 -2.58297901E-06  5.17215209E-06 -1.60477970E-04 -1.14819466E-05  1.76900844E-04
 -2.20258811E-04  3.77840849E-05 -1.12040333E-05 -5.15863738E-06  1.55512710E-06
  1.10556714E-05  2.51267654E-05 -1.68780947E-05  4.59921251E-04 -7.69525863E-05
  1.91812947E-05 -1.09701297E-05 -2.91074892E-03  2.96653804E-03 -3.71879589E-03
  1.30735417E-04 -3.35070438E-04 -5.58990223E-04 -6.22390210E-05  4.54175621E-04
  6.71040459E-06  1.28076377E-05  2.85415990E-05  1.63760550E-04  7.68516691E-05
 -2.07584633E-04  1.06115372E-05  5.26942678E-06 -3.43420944E-05 -3.93699954E-05
 -7.60392371E-05 -1.82085111E-04  6.05035208E-05  5.63877029E-05 -1.32131438E-07
  1.86168625E-06  4.99876124E-06 -9.74866515E-06  2.86391372E-06  1.07361428E-05
 -6.45466413E-06 -2.78378698E-05 -1.96031594E-05 -5.92282097E-06  2.31452328E-05
 -3.82510404E-06 -1.03819698E-05 -3.06048403E-06  3.00865277E-06  1.69083654E-05
  8.11818318E-05  3.22426653E-05 -1.62208062E-05  7.84446560E-06 -2.35439064E-04
 -1.69514618E-04  7.01089106E-05 -3.30810488E-05 -9.09453914E-06  7.33610638E-05
  7.66133830E-05  2.00725498E-05 -1.22130271E-05 -2.47813036E-07  9.92646956E-01
  3.48039187E-02  7.07431480E-04  5.20221308E-04 -2.14867541E-04  4.03699698E-03
 -3.04684628E-04 -2.39080969E-04  3.27761508E-06 -8.29801052E-03 -8.41295771E-03
 -8.31679696E-03  2.56449060E-05 -1.23593905E-05 -1.77430931E-05 -7.73584733E-06
  7.22836891E-05  7.47342390E-05 -2.53268714E-04 -5.86065315E-05 -1.04072204E-04
  1.69722002E-04  1.91470790E-04 -8.82509394E-05 -1.23650120E-05  1.19244062E-04
 -3.86376949E-05 -4.13339514E-05 -1.49214568E-05  4.17627842E-05  5.99297132E-06
  6.72013375E-05 -6.14258458E-06  2.97303568E-05 -7.07949046E-06 -2.86171987E-04
  7.10752380E-05  8.04082741E-05 -9.10219583E-06  4.55441564E-06 -4.51837247E-05
 -8.89442961E-08 -4.22732155E-06  1.12394587E-07  4.96332165E-06 -2.97660952E-06
  5.17968781E-05 -2.09543249E-05 -6.42921844E-06  2.13833819E-06  9.24273279E-05
  1.01257307E-04  3.43528157E-05  6.97257384E-05 -7.63667934E-05 -4.13714694E-05
 -1.45557277E-05  3.15776476E-05  2.20727138E-06 -3.00927069E-06 -1.94150931E-06
 -3.38039709E-05  1.39341151E-05  2.19274020E-05  4.06891142E-06 -1.96197437E-06
  1.02825548E-05  4.96950921E-05  3.16265308E-04 -4.24003445E-04  2.71570264E-04
 -4.88780886E-04 -5.39254322E-05  6.34239765E-04 -9.34971990E-05  8.65984803E-06
 -2.83861306E-05 -4.36953702E-03 -6.42429092E-04  2.44471765E-03  2.59212422E-04
  3.55519352E-04 -1.88973623E-04  5.24558937E-04  3.39931486E-04  1.42317387E-05
 -4.75423620E-05 -5.14095534E-05  3.96641866E-04 -8.80677350E-05 -5.00816747E-05
 -2.65430381E-05 -2.23343370E-03  2.92875185E-05 -1.98017273E-03 -3.12782067E-04
  2.57445593E-04 -4.17205573E-04  3.76163121E-04 -2.55560916E-04 -7.90745741E-05
 -2.15166763E-04 -4.75133199E-05 -2.46108562E-04  8.95038323E-05 -6.59848435E-05
  3.52934598E-05  5.37984499E-04 -5.55342005E-04  4.48687616E-04 -3.85478539E-04
  1.37123082E-05 -5.84538672E-05 -1.58680270E-04 -7.50667665E-05  8.02978580E-06
  2.89898948E-05  1.54852532E-03 -9.10179057E-05  1.88261200E-04  6.25916950E-05
  5.08205883E-05  4.27640494E-03 -2.86696787E-03 -3.78911234E-04  7.58427950E-05
 -4.38319473E-04 -2.75093303E-04 -1.63513372E-04 -9.48278000E-06 -4.89302797E-05
  1.20858113E-06 -8.32779389E-05 -3.02230402E-04  1.62010614E-04  3.37659902E-05
  2.45978468E-05  1.08948568E-03 -8.75134462E-04 -4.58889861E-04 -3.82155501E-05
 -3.42879304E-05 -3.59481200E-05 -9.30043129E-05  4.11072178E-05 -8.33653909E-06
 -4.84026230E-05  9.92930248E-01  4.85800757E-02 -8.65342610E-04 -6.59995143E-05
 -2.38420316E-04 -6.71599681E-03 -5.84001181E-03  1.00257411E-03 -1.11734817E-03
 -8.73258556E-03 -8.18673200E-03 -9.57527325E-03 -2.02569764E-04  1.81010064E-04
  2.29414284E-04 -2.29131164E-04  9.98001578E-05 -1.04867235E-04 -8.05497818E-05
  4.10374628E-06  5.24442139E-04 -1.27250450E-04 -8.92423565E-05  8.43437421E-05
  3.79411393E-04 -1.45594545E-04 -5.21101113E-05 -6.60136243E-05 -3.12157273E-04
  2.00980904E-05  4.10004322E-05 -2.41680280E-05  1.71311460E-03 -3.63566164E-04