 Entering Gaussian System, Link 0=g03
 Initial command:
 /opt/gaussian/g03_D1_amd64/g03/l1.exe /home/toon/unief/research/code/work/hipart/apps/hipart-example/alanine/Gau-17926.inp -scrdir=/home/toon/unief/research/code/work/hipart/apps/hipart-example/alanine/
 Entering Link 1 = /opt/gaussian/g03_D1_amd64/g03/l1.exe PID=     17928.
  
 Copyright (c) 1988,1990,1992,1993,1995,1998,2003,2004, Gaussian, Inc.
                  All Rights Reserved.
  
 This is the Gaussian(R) 03 program.  It is based on the
 the Gaussian(R) 98 system (copyright 1998, Gaussian, Inc.),
 the Gaussian(R) 94 system (copyright 1995, Gaussian, Inc.),
 the Gaussian 92(TM) system (copyright 1992, Gaussian, Inc.),
 the Gaussian 90(TM) system (copyright 1990, Gaussian, Inc.),
 the Gaussian 88(TM) system (copyright 1988, Gaussian, Inc.),
 the Gaussian 86(TM) system (copyright 1986, Carnegie Mellon
 University), and the Gaussian 82(TM) system (copyright 1983,
 Carnegie Mellon University). Gaussian is a federally registered
 trademark of Gaussian, Inc.
  
 This software contains proprietary and confidential information,
 including trade secrets, belonging to Gaussian, Inc.
  
 This software is provided under written license and may be
 used, copied, transmitted, or stored only in accord with that
 written license.
  
 The following legend is applicable only to US Government
 contracts under FAR:
  
                    RESTRICTED RIGHTS LEGEND
  
 Use, reproduction and disclosure by the US Government is
 subject to restrictions as set forth in subparagraphs (a)
 and (c) of the Commercial Computer Software - Restricted
 Rights clause in FAR 52.227-19.
  
 Gaussian, Inc.
 340 Quinnipiac St., Bldg. 40, Wallingford CT 06492
  
  
 ---------------------------------------------------------------
 Warning -- This program may not be used in any manner that
 competes with the business of Gaussian, Inc. or will provide
 assistance to any competitor of Gaussian, Inc.  The licensee
 of this program is prohibited from giving any competitor of
 Gaussian, Inc. access to this program.  By using this program,
 the user acknowledges that Gaussian, Inc. is engaged in the
 business of creating and licensing software in the field of
 computational chemistry and represents and warrants to the
 licensee that it is not a competitor of Gaussian, Inc. and that
 it will not use this program in any manner prohibited above.
 ---------------------------------------------------------------
  

 Cite this work as:
 Gaussian 03, Revision D.01,
 M. J. Frisch, G. W. Trucks, H. B. Schlegel, G. E. Scuseria, 
 M. A. Robb, J. R. Cheeseman, J. A. Montgomery, Jr., T. Vreven, 
 K. N. Kudin, J. C. Burant, J. M. Millam, S. S. Iyengar, J. Tomasi, 
 V. Barone, B. Mennucci, M. Cossi, G. Scalmani, N. Rega, 
 G. A. Petersson, H. Nakatsuji, M. Hada, M. Ehara, K. Toyota, 
 R. Fukuda, J. Hasegawa, M. Ishida, T. Nakajima, Y. Honda, O. Kitao, 
 H. Nakai, M. Klene, X. Li, J. E. Knox, H. P. Hratchian, J. B. Cross, 
 V. Bakken, C. Adamo, J. Jaramillo, R. Gomperts, R. E. Stratmann, 
 O. Yazyev, A. J. Austin, R. Cammi, C. Pomelli, J. W. Ochterski, 
 P. Y. Ayala, K. Morokuma, G. A. Voth, P. Salvador, J. J. Dannenberg, 
 V. G. Zakrzewski, S. Dapprich, A. D. Daniels, M. C. Strain, 
 O. Farkas, D. K. Malick, A. D. Rabuck, K. Raghavachari, 
 J. B. Foresman, J. V. Ortiz, Q. Cui, A. G. Baboul, S. Clifford, 
 J. Cioslowski, B. B. Stefanov, G. Liu, A. Liashenko, P. Piskorz, 
 I. Komaromi, R. L. Martin, D. J. Fox, T. Keith, M. A. Al-Laham, 
 C. Y. Peng, A. Nanayakkara, M. Challacombe, P. M. W. Gill, 
 B. Johnson, W. Chen, M. W. Wong, C. Gonzalez, and J. A. Pople, 
 Gaussian, Inc., Wallingford CT, 2004.
 
 ******************************************
 Gaussian 03:  AM64L-G03RevD.01 13-Oct-2005
                 4-Aug-2010 
 ******************************************
 %mem=500MB
 %chk=gaussian.chk
 %nproc=1
 Will use up to    1 processors via shared memory.
 ------------------------------------------------------
 #p B3LYP/6-31G(d) sp scf(fermi,tight) density(current)
 ------------------------------------------------------
 1/30=1,38=1/1;
 2/17=6,18=5,40=1/2;
 3/5=1,6=6,7=1,11=2,16=1,25=1,30=1,74=-5/1,2,3;
 4//1;
 5/5=2,22=13,32=2,38=5/2;
 6/7=2,8=2,9=2,10=2,22=-1,28=1/1;
 99/5=1,9=1/99;
 Leave Link    1 at Wed Aug  4 11:06:04 2010, MaxMem=   65536000 cpu:       0.1
 (Enter /opt/gaussian/g03_D1_amd64/g03/l101.exe)
 --------------------
 Alanine optimization
 --------------------
 Symbolic Z-matrix:
 Charge =  0 Multiplicity = 1
 O                     1.65764   0.7442   -0.48984 
 O                     1.1021   -1.08907   0.69779 
 N                    -1.40476  -1.09105  -0.4582 
 C                    -0.65537   0.16152  -0.41584 
 C                    -1.20482   1.23033   0.55789 
 C                     0.77482  -0.16402  -0.01289 
 H                    -0.62756   0.59452  -1.42294 
 H                    -0.60964   2.14968   0.52595 
 H                    -2.23546   1.48342   0.28403 
 H                    -1.20545   0.84851   1.58535 
 H                    -2.40396  -0.89777  -0.44013 
 H                    -1.18081  -1.63505   0.37383 
 H                     2.53051   0.48601  -0.13729 
 
                    Isotopes and Nuclear Properties:
 (Nuclear quadrupole moments (NQMom) in fm**2, nuclear magnetic moments (NMagM)
  in nuclear magnetons)

  Atom         1           2           3           4           5           6           7           8           9          10
 IAtWgt=          16          16          14          12          12          12           1           1           1           1
 AtmWgt=  15.9949146  15.9949146  14.0030740  12.0000000  12.0000000  12.0000000   1.0078250   1.0078250   1.0078250   1.0078250
 NucSpn=           0           0           2           0           0           0           1           1           1           1
 AtZEff=   0.0000000   0.0000000   0.0000000   0.0000000   0.0000000   0.0000000   0.0000000   0.0000000   0.0000000   0.0000000
 NQMom=    0.0000000   0.0000000   2.0440000   0.0000000   0.0000000   0.0000000   0.0000000   0.0000000   0.0000000   0.0000000
 NMagM=    0.0000000   0.0000000   0.4037610   0.0000000   0.0000000   0.0000000   2.7928460   2.7928460   2.7928460   2.7928460

  Atom        11          12          13
 IAtWgt=           1           1           1
 AtmWgt=   1.0078250   1.0078250   1.0078250
 NucSpn=           1           1           1
 AtZEff=   0.0000000   0.0000000   0.0000000
 NQMom=    0.0000000   0.0000000   0.0000000
 NMagM=    2.7928460   2.7928460   2.7928460
 Leave Link  101 at Wed Aug  4 11:06:05 2010, MaxMem=   65536000 cpu:       0.0
 (Enter /opt/gaussian/g03_D1_amd64/g03/l202.exe)
                          Input orientation:                          
 ---------------------------------------------------------------------
 Center     Atomic     Atomic              Coordinates (Angstroms)
 Number     Number      Type              X           Y           Z
 ---------------------------------------------------------------------
    1          8             0        1.657643    0.744201   -0.489837
    2          8             0        1.102099   -1.089074    0.697794
    3          7             0       -1.404761   -1.091053   -0.458203
    4          6             0       -0.655372    0.161524   -0.415840
    5          6             0       -1.204817    1.230334    0.557895
    6          6             0        0.774816   -0.164020   -0.012894
    7          1             0       -0.627559    0.594522   -1.422940
    8          1             0       -0.609640    2.149682    0.525945
    9          1             0       -2.235463    1.483422    0.284035
   10          1             0       -1.205448    0.848510    1.585349
   11          1             0       -2.403965   -0.897766   -0.440133
   12          1             0       -1.180805   -1.635048    0.373827
   13          1             0        2.530514    0.486013   -0.137289
 ---------------------------------------------------------------------
                    Distance matrix (angstroms):
                    1          2          3          4          5
     1  O    0.000000
     2  O    2.253884   0.000000
     3  N    3.570360   2.760557   0.000000
     4  C    2.386425   2.427525   1.460249   0.000000
     5  C    3.086704   3.274308   2.541903   1.546740   0.000000
     6  C    1.353412   1.211576   2.410030   1.521112   2.487765
     7  H    2.472900   3.213055   2.091871   1.096591   2.158979
     8  H    2.854429   3.667305   3.478956   2.200415   1.095654
     9  H    4.037524   4.234177   2.805157   2.175759   1.096031
    10  H    3.537593   3.141140   2.824489   2.186159   1.096108
    11  H    4.381231   3.691065   1.017888   2.044569   2.638717
    12  H    3.803095   2.369534   1.018999   2.031582   2.871389
    13  H    0.976143   2.284433   4.251648   3.214460   3.871692
                    6          7          8          9         10
     6  C    0.000000
     7  H    2.128444   0.000000
     8  H    2.749598   2.493391   0.000000
     9  H    3.444418   2.507840   1.773619   0.000000
    10  H    2.738803   3.073803   1.780554   1.776925   0.000000
    11  H    3.290223   2.519613   3.666040   2.494568   2.930614
    12  H    2.477485   2.916408   3.830608   3.293209   2.763414
    13  H    1.876298   3.411466   3.615003   4.887421   4.129927
                   11         12         13
    11  H    0.000000
    12  H    1.643847   0.000000
    13  H    5.133775   4.305117   0.000000
 Stoichiometry    C3H7NO2
 Framework group  C1[X(C3H7NO2)]
 Deg. of freedom    33
 Full point group                 C1
 Largest Abelian subgroup         C1      NOp   1
 Largest concise Abelian subgroup C1      NOp   1
                         Standard orientation:                         
 ---------------------------------------------------------------------
 Center     Atomic     Atomic              Coordinates (Angstroms)
 Number     Number      Type              X           Y           Z
 ---------------------------------------------------------------------
    1          8             0        1.657643    0.744201   -0.489837
    2          8             0        1.102099   -1.089074    0.697794
    3          7             0       -1.404761   -1.091053   -0.458203
    4          6             0       -0.655372    0.161524   -0.415840
    5          6             0       -1.204817    1.230334    0.557895
    6          6             0        0.774816   -0.164020   -0.012894
    7          1             0       -0.627559    0.594522   -1.422940
    8          1             0       -0.609640    2.149682    0.525945
    9          1             0       -2.235463    1.483422    0.284035
   10          1             0       -1.205448    0.848510    1.585349
   11          1             0       -2.403965   -0.897766   -0.440133
   12          1             0       -1.180805   -1.635048    0.373827
   13          1             0        2.530514    0.486013   -0.137289
 ---------------------------------------------------------------------
 Rotational constants (GHZ):      5.0275341      3.0264062      2.3356780
 Leave Link  202 at Wed Aug  4 11:06:05 2010, MaxMem=   65536000 cpu:       0.1
 (Enter /opt/gaussian/g03_D1_amd64/g03/l301.exe)
 Standard basis: 6-31G(d) (6D, 7F)
 There are   104 symmetry adapted basis functions of A   symmetry.
 Integral buffers will be    131072 words long.
 Raffenetti 2 integral format.
 Two-electron integral symmetry is turned on.
   104 basis functions,   196 primitive gaussians,   104 cartesian basis functions
    24 alpha electrons       24 beta electrons
       nuclear repulsion energy       248.9516278551 Hartrees.
 IExCor= 402 DFT=T Ex=B+HF Corr=LYP ExCW=0 ScaHFX=  0.200000
 ScaDFX=  0.800000  0.720000  1.000000  0.810000
 IRadAn=      0 IRanWt=     -1 IRanGd=            0 ICorTp=0
 NAtoms=   13 NActive=   13 NUniq=   13 SFac= 7.50D-01 NAtFMM=   80 NAOKFM=F Big=F
 Leave Link  301 at Wed Aug  4 11:06:06 2010, MaxMem=   65536000 cpu:       0.0
 (Enter /opt/gaussian/g03_D1_amd64/g03/l302.exe)
 NPDir=0 NMtPBC=     1 NCelOv=     1 NCel=       1 NClECP=     1 NCelD=      1
         NCelK=      1 NCelE2=     1 NClLst=     1 CellRange=     0.0.
 One-electron integrals computed using PRISM.
 NBasis=   104 RedAO= T  NBF=   104
 NBsUse=   104 1.00D-06 NBFU=   104
 Precomputing XC quadrature grid using
 IXCGrd= 2 IRadAn=           0 IRanWt=          -1 IRanGd=           0.
 NRdTot=     808 NPtTot=      102094 NUsed=      107803 NTot=      107835
 NSgBfM=   104   104   104   104.
 Leave Link  302 at Wed Aug  4 11:06:06 2010, MaxMem=   65536000 cpu:       0.4
 (Enter /opt/gaussian/g03_D1_amd64/g03/l303.exe)
 DipDrv:  MaxL=1.
 Leave Link  303 at Wed Aug  4 11:06:07 2010, MaxMem=   65536000 cpu:       0.0
 (Enter /opt/gaussian/g03_D1_amd64/g03/l401.exe)
 Harris functional with IExCor=  402 diagonalized for initial guess.
 ExpMin= 1.61D-01 ExpMax= 5.48D+03 ExpMxC= 8.25D+02 IAcc=1 IRadAn=         1 AccDes= 1.00D-06
 HarFok:  IExCor= 402 AccDes= 1.00D-06 IRadAn=         1 IDoV=1
 ScaDFX=  1.000000  1.000000  1.000000  1.000000
 Harris En= -323.836593419744    
 Initial guess orbital symmetries:
       Occupied  (A) (A) (A) (A) (A) (A) (A) (A) (A) (A) (A) (A)
                 (A) (A) (A) (A) (A) (A) (A) (A) (A) (A) (A) (A)
       Virtual   (A) (A) (A) (A) (A) (A) (A) (A) (A) (A) (A) (A)
                 (A) (A) (A) (A) (A) (A) (A) (A) (A) (A) (A) (A)
                 (A) (A) (A) (A) (A) (A) (A) (A) (A) (A) (A) (A)
                 (A) (A) (A) (A) (A) (A) (A) (A) (A) (A) (A) (A)
                 (A) (A) (A) (A) (A) (A) (A) (A) (A) (A) (A) (A)
                 (A) (A) (A) (A) (A) (A) (A) (A) (A) (A) (A) (A)
                 (A) (A) (A) (A) (A) (A) (A) (A)
 The electronic state of the initial guess is 1-A.
 Leave Link  401 at Wed Aug  4 11:06:08 2010, MaxMem=   65536000 cpu:       0.7
 (Enter /opt/gaussian/g03_D1_amd64/g03/l502.exe)
 Closed shell SCF:
 Requested convergence on RMS density matrix=1.00D-08 within 128 cycles.
 Requested convergence on MAX density matrix=1.00D-06.
 Requested convergence on             energy=1.00D-06.
 Level shift goal  0.100 maximum shift  0.100.
 No special actions if energy rises.
 Dynamic level shift is on during FON iterations.
 Using DIIS extrapolation, IDIIS=    10.
 Integral symmetry usage will be decided dynamically.
       107802 words used for storage of precomputed grid.
 Keep R1 integrals in memory in canonical form, NReq=    16819251.
 IEnd=    164026 IEndB=    164026 NGot=  65536000 MDV=  50490991
 LenX=  50490991
 Symmetry not used in FoFDir.
 MinBra= 0 MaxBra= 2 Meth= 1.
 IRaf=       0 NMat=   1 IRICut=       1 DoRegI=T DoRafI=F ISym2E= 0 JSym2E=0.
 Integral accuracy reduced to 1.0D-05 until final iterations.

 Cycle   1  Pass 0  IDiag  1:
 E= -323.490522007006    
 DIIS: error= 3.11D-02 at cycle   1 NSaved=   1.
 NSaved= 1 IEnMin= 1 EnMin= -323.490522007006     IErMin= 1 ErrMin= 3.11D-02
 ErrMax= 3.11D-02 EMaxC= 1.00D+00 BMatC= 2.87D-01 BMatP= 2.87D-01
 IDIUse=1 WtCom= 1.00D+00 WtEn= 0.00D+00
 Coeff-Com:  0.100D+01
 Coeff:      0.100D+01
 Gap=     0.143 Goal=     0.100 Shift=    0.000
 T= 1517. Gap= 0.172 NK=0 IS=    1 IE=  104
          NO(<0.9)=   0  NV(>0.1)=   0  24.00e < EF 0.00e >EF  Err=3.7D-11
 GapD=    0.143 DampG=1.000 DampE=0.500 DampFc=0.5000 IDamp=-1.
 Damping current iteration by 5.00D-01
 RMSDP=1.04D-02 MaxDP=1.69D-01              OVMax= 2.26D-01

 Cycle   2  Pass 0  IDiag  1:
 E= -323.578475077486     Delta-E=       -0.087953070480 Rises=F Damp=T
 DIIS: error= 8.02D-03 at cycle   2 NSaved=   2.
 NSaved= 2 IEnMin= 2 EnMin= -323.578475077486     IErMin= 2 ErrMin= 8.02D-03
 ErrMax= 8.02D-03 EMaxC= 1.00D+00 BMatC= 2.36D-02 BMatP= 2.87D-01
 IDIUse=1 WtCom= 1.00D+00 WtEn= 0.00D+00
 Coeff-Com:  0.169D+00 0.831D+00
 Coeff:      0.169D+00 0.831D+00
 Gap=     0.227 Goal=     0.100 Shift=    0.000
 T= 1347. Gap= 0.244 NK=0 IS=    1 IE=  104
          NO(<0.9)=   0  NV(>0.1)=   0  24.00e < EF 0.00e >EF  Err=1.8D-12
 GapD=    0.227 DampG=1.000 DampE=1.000 DampFc=1.0000 IDamp=-1.
 RMSDP=2.42D-03 MaxDP=4.63D-02 DE=-8.80D-02 OVMax= 1.54D-01

 Cycle   3  Pass 0  IDiag  1:
 E= -323.715005026762     Delta-E=       -0.136529949276 Rises=F Damp=F
 DIIS: error= 1.23D-02 at cycle   3 NSaved=   3.
 NSaved= 3 IEnMin= 3 EnMin= -323.715005026762     IErMin= 2 ErrMin= 8.02D-03
 ErrMax= 1.23D-02 EMaxC= 1.00D+00 BMatC= 2.74D-02 BMatP= 2.36D-02
 IDIUse=1 WtCom= 1.00D+00 WtEn= 0.00D+00
 Coeff-Com:  0.732D-01 0.529D+00 0.398D+00
 Coeff:      0.732D-01 0.529D+00 0.398D+00
 Gap=     0.247 Goal=     0.100 Shift=    0.000
 T= 1160. Gap= 0.248 NK=0 IS=    1 IE=  104
          NO(<0.9)=   0  NV(>0.1)=   0  24.00e < EF 0.00e >EF  Err=6.5D-13
 GapD=    0.247 DampG=1.000 DampE=0.500 DampFc=0.5000 IDamp=-1.
 Damping current iteration by 5.00D-01
 RMSDP=1.41D-03 MaxDP=3.22D-02 DE=-1.37D-01 OVMax= 6.53D-02

 Cycle   4  Pass 0  IDiag  1:
 E= -323.730483871843     Delta-E=       -0.015478845080 Rises=F Damp=T
 DIIS: error= 5.43D-03 at cycle   4 NSaved=   4.
 NSaved= 4 IEnMin= 4 EnMin= -323.730483871843     IErMin= 4 ErrMin= 5.43D-03
 ErrMax= 5.43D-03 EMaxC= 1.00D+00 BMatC= 5.19D-03 BMatP= 2.36D-02
 IDIUse=1 WtCom= 1.00D+00 WtEn= 0.00D+00
 Coeff-Com:  0.836D-02 0.131D+00-0.490D+00 0.135D+01
 Coeff:      0.836D-02 0.131D+00-0.490D+00 0.135D+01
 Gap=     0.241 Goal=     0.100 Shift=    0.000
 T=  745. Gap= 0.241 NK=0 IS=    1 IE=  104
          NO(<0.9)=   0  NV(>0.1)=   0  24.00e < EF 0.00e >EF  Err=0.0D+00
 GapD=    0.241 DampG=1.000 DampE=1.000 DampFc=1.0000 IDamp=-1.
 RMSDP=5.66D-04 MaxDP=1.13D-02 DE=-1.55D-02 OVMax= 1.20D-02

 Cycle   5  Pass 0  IDiag  1:
 E= -323.736933524174     Delta-E=       -0.006449652332 Rises=F Damp=F
 DIIS: error= 7.66D-04 at cycle   5 NSaved=   5.
 NSaved= 5 IEnMin= 5 EnMin= -323.736933524174     IErMin= 5 ErrMin= 7.66D-04
 ErrMax= 7.66D-04 EMaxC= 1.00D+00 BMatC= 1.82D-04 BMatP= 5.19D-03
 IDIUse=1 WtCom= 1.00D+00 WtEn= 0.00D+00
 Coeff-Com: -0.107D-02 0.249D-01-0.302D+00 0.725D+00 0.553D+00
 Coeff:     -0.107D-02 0.249D-01-0.302D+00 0.725D+00 0.553D+00
 Gap=     0.244 Goal=     0.100 Shift=    0.000
 RMSDP=1.23D-04 MaxDP=2.42D-03 DE=-6.45D-03 OVMax= 3.57D-03

 Cycle   6  Pass 0  IDiag  1:
 E= -323.737078199096     Delta-E=       -0.000144674921 Rises=F Damp=F
 DIIS: error= 1.72D-04 at cycle   6 NSaved=   6.
 NSaved= 6 IEnMin= 6 EnMin= -323.737078199096     IErMin= 6 ErrMin= 1.72D-04
 ErrMax= 1.72D-04 EMaxC= 1.00D+00 BMatC= 1.07D-05 BMatP= 1.82D-04
 IDIUse=1 WtCom= 1.00D+00 WtEn= 0.00D+00
 Coeff-Com: -0.129D-02 0.218D-02-0.104D+00 0.236D+00 0.271D+00 0.597D+00
 Coeff:     -0.129D-02 0.218D-02-0.104D+00 0.236D+00 0.271D+00 0.597D+00
 Gap=     0.244 Goal=     0.100 Shift=    0.000
 RMSDP=3.06D-05 MaxDP=5.53D-04 DE=-1.45D-04 OVMax= 6.60D-04

 Cycle   7  Pass 0  IDiag  1:
 E= -323.737086542396     Delta-E=       -0.000008343301 Rises=F Damp=F
 DIIS: error= 4.65D-05 at cycle   7 NSaved=   7.
 NSaved= 7 IEnMin= 7 EnMin= -323.737086542396     IErMin= 7 ErrMin= 4.65D-05
 ErrMax= 4.65D-05 EMaxC= 1.00D+00 BMatC= 6.52D-07 BMatP= 1.07D-05
 IDIUse=1 WtCom= 1.00D+00 WtEn= 0.00D+00
 Coeff-Com: -0.546D-03-0.344D-03-0.318D-01 0.687D-01 0.102D+00 0.288D+00
 Coeff-Com:  0.574D+00
 Coeff:     -0.546D-03-0.344D-03-0.318D-01 0.687D-01 0.102D+00 0.288D+00
 Coeff:      0.574D+00
 Gap=     0.244 Goal=     0.100 Shift=    0.000
 RMSDP=8.20D-06 MaxDP=1.14D-04 DE=-8.34D-06 OVMax= 1.73D-04

 Initial convergence to 1.0D-05 achieved.  Increase integral accuracy.
 Cycle   8  Pass 1  IDiag  1:
 E= -323.737090575417     Delta-E=       -0.000004033021 Rises=F Damp=F
 DIIS: error= 1.06D-05 at cycle   1 NSaved=   1.
 NSaved= 1 IEnMin= 1 EnMin= -323.737090575417     IErMin= 1 ErrMin= 1.06D-05
 ErrMax= 1.06D-05 EMaxC= 1.00D+00 BMatC= 3.68D-08 BMatP= 3.68D-08
 IDIUse=1 WtCom= 1.00D+00 WtEn= 0.00D+00
 Coeff-Com:  0.100D+01
 Coeff:      0.100D+01
 Gap=     0.244 Goal=     0.100 Shift=    0.000
 RMSDP=8.20D-06 MaxDP=1.14D-04 DE=-4.03D-06 OVMax= 8.97D-05

 Cycle   9  Pass 1  IDiag  1:
 E= -323.737090583770     Delta-E=       -0.000000008353 Rises=F Damp=F
 DIIS: error= 1.20D-05 at cycle   2 NSaved=   2.
 NSaved= 2 IEnMin= 2 EnMin= -323.737090583770     IErMin= 1 ErrMin= 1.06D-05
 ErrMax= 1.20D-05 EMaxC= 1.00D+00 BMatC= 4.12D-08 BMatP= 3.68D-08
 IDIUse=1 WtCom= 1.00D+00 WtEn= 0.00D+00
 Coeff-Com:  0.517D+00 0.483D+00
 Coeff:      0.517D+00 0.483D+00
 Gap=     0.244 Goal=     0.100 Shift=    0.000
 RMSDP=1.90D-06 MaxDP=4.01D-05 DE=-8.35D-09 OVMax= 4.28D-05

 Cycle  10  Pass 1  IDiag  1:
 E= -323.737090614551     Delta-E=       -0.000000030780 Rises=F Damp=F
 DIIS: error= 2.78D-06 at cycle   3 NSaved=   3.
 NSaved= 3 IEnMin= 3 EnMin= -323.737090614551     IErMin= 3 ErrMin= 2.78D-06
 ErrMax= 2.78D-06 EMaxC= 1.00D+00 BMatC= 2.47D-09 BMatP= 3.68D-08
 IDIUse=1 WtCom= 1.00D+00 WtEn= 0.00D+00
 Coeff-Com:  0.161D-01 0.195D+00 0.789D+00
 Coeff:      0.161D-01 0.195D+00 0.789D+00
 Gap=     0.244 Goal=     0.100 Shift=    0.000
 RMSDP=4.41D-07 MaxDP=8.78D-06 DE=-3.08D-08 OVMax= 1.16D-05

 Cycle  11  Pass 1  IDiag  1:
 E= -323.737090616206     Delta-E=       -0.000000001656 Rises=F Damp=F
 DIIS: error= 1.07D-06 at cycle   4 NSaved=   4.
 NSaved= 4 IEnMin= 4 EnMin= -323.737090616206     IErMin= 4 ErrMin= 1.07D-06
 ErrMax= 1.07D-06 EMaxC= 1.00D+00 BMatC= 3.44D-10 BMatP= 2.47D-09
 IDIUse=1 WtCom= 1.00D+00 WtEn= 0.00D+00
 Coeff-Com: -0.129D-01 0.929D-01 0.454D+00 0.466D+00
 Coeff:     -0.129D-01 0.929D-01 0.454D+00 0.466D+00
 Gap=     0.244 Goal=     0.100 Shift=    0.000
 RMSDP=1.68D-07 MaxDP=3.83D-06 DE=-1.66D-09 OVMax= 5.95D-06

 Cycle  12  Pass 1  IDiag  1:
 E= -323.737090616441     Delta-E=       -0.000000000235 Rises=F Damp=F
 DIIS: error= 4.74D-07 at cycle   5 NSaved=   5.
 NSaved= 5 IEnMin= 5 EnMin= -323.737090616441     IErMin= 5 ErrMin= 4.74D-07
 ErrMax= 4.74D-07 EMaxC= 1.00D+00 BMatC= 4.08D-11 BMatP= 3.44D-10
 IDIUse=1 WtCom= 1.00D+00 WtEn= 0.00D+00
 Coeff-Com: -0.883D-02 0.351D-01 0.187D+00 0.291D+00 0.496D+00
 Coeff:     -0.883D-02 0.351D-01 0.187D+00 0.291D+00 0.496D+00
 Gap=     0.244 Goal=     0.100 Shift=    0.000
 RMSDP=6.01D-08 MaxDP=1.39D-06 DE=-2.35D-10 OVMax= 2.89D-06

 Cycle  13  Pass 1  IDiag  1:
 E= -323.737090616471     Delta-E=       -0.000000000030 Rises=F Damp=F
 DIIS: error= 1.45D-07 at cycle   6 NSaved=   6.
 NSaved= 6 IEnMin= 6 EnMin= -323.737090616471     IErMin= 6 ErrMin= 1.45D-07
 ErrMax= 1.45D-07 EMaxC= 1.00D+00 BMatC= 3.68D-12 BMatP= 4.08D-11
 IDIUse=1 WtCom= 1.00D+00 WtEn= 0.00D+00
 Coeff-Com: -0.426D-02 0.129D-01 0.719D-01 0.131D+00 0.300D+00 0.489D+00
 Coeff:     -0.426D-02 0.129D-01 0.719D-01 0.131D+00 0.300D+00 0.489D+00
 Gap=     0.244 Goal=     0.100 Shift=    0.000
 RMSDP=1.58D-08 MaxDP=3.58D-07 DE=-2.96D-11 OVMax= 5.42D-07

 Cycle  14  Pass 1  IDiag  1:
 E= -323.737090616473     Delta-E=       -0.000000000003 Rises=F Damp=F
 DIIS: error= 2.06D-08 at cycle   7 NSaved=   7.
 NSaved= 7 IEnMin= 7 EnMin= -323.737090616473     IErMin= 7 ErrMin= 2.06D-08
 ErrMax= 2.06D-08 EMaxC= 1.00D+00 BMatC= 1.64D-13 BMatP= 3.68D-12
 IDIUse=1 WtCom= 1.00D+00 WtEn= 0.00D+00
 Coeff-Com: -0.265D-03-0.254D-03-0.123D-03 0.662D-02 0.541D-01 0.198D+00
 Coeff-Com:  0.741D+00
 Coeff:     -0.265D-03-0.254D-03-0.123D-03 0.662D-02 0.541D-01 0.198D+00
 Coeff:      0.741D+00
 Gap=     0.244 Goal=     0.100 Shift=    0.000
 RMSDP=4.82D-09 MaxDP=7.75D-08 DE=-2.50D-12 OVMax= 1.27D-07

 SCF Done:  E(RB+HF-LYP) =  -323.737090616     A.U. after   14 cycles
             Convg  =    0.4819D-08             -V/T =  2.0090
             S**2   =   0.0000
 KE= 3.208374974156D+02 PE=-1.254846645699D+03 EE= 3.613204298114D+02
 Leave Link  502 at Wed Aug  4 11:06:34 2010, MaxMem=   65536000 cpu:      26.3
 (Enter /opt/gaussian/g03_D1_amd64/g03/l601.exe)
 Copying SCF densities to generalized density rwf, ISCF=0 IROHF=0.

 **********************************************************************

            Population analysis using the SCF density.

 **********************************************************************

 Orbital symmetries:
       Occupied  (A) (A) (A) (A) (A) (A) (A) (A) (A) (A) (A) (A)
                 (A) (A) (A) (A) (A) (A) (A) (A) (A) (A) (A) (A)
       Virtual   (A) (A) (A) (A) (A) (A) (A) (A) (A) (A) (A) (A)
                 (A) (A) (A) (A) (A) (A) (A) (A) (A) (A) (A) (A)
                 (A) (A) (A) (A) (A) (A) (A) (A) (A) (A) (A) (A)
                 (A) (A) (A) (A) (A) (A) (A) (A) (A) (A) (A) (A)
                 (A) (A) (A) (A) (A) (A) (A) (A) (A) (A) (A) (A)
                 (A) (A) (A) (A) (A) (A) (A) (A) (A) (A) (A) (A)
                 (A) (A) (A) (A) (A) (A) (A) (A)
 The electronic state is 1-A.
 Alpha  occ. eigenvalues --  -19.20210 -19.14442 -14.31429 -10.32254 -10.23191
 Alpha  occ. eigenvalues --  -10.19023  -1.11012  -1.01999  -0.89068  -0.75253
 Alpha  occ. eigenvalues --   -0.67295  -0.58679  -0.52603  -0.48746  -0.46516
 Alpha  occ. eigenvalues --   -0.44261  -0.43520  -0.40917  -0.40720  -0.37524
 Alpha  occ. eigenvalues --   -0.36544  -0.32243  -0.28010  -0.23782
 Alpha virt. eigenvalues --    0.00628   0.07097   0.08497   0.13601   0.14093
 Alpha virt. eigenvalues --    0.15511   0.16751   0.18257   0.21346   0.22453
 Alpha virt. eigenvalues --    0.26785   0.31819   0.36779   0.51922   0.53581
 Alpha virt. eigenvalues --    0.54648   0.55619   0.60476   0.63123   0.66712
 Alpha virt. eigenvalues --    0.69384   0.72470   0.75625   0.77296   0.79939
 Alpha virt. eigenvalues --    0.82249   0.84068   0.87395   0.89454   0.91394
 Alpha virt. eigenvalues --    0.93286   0.93790   0.95203   0.96796   0.97130
 Alpha virt. eigenvalues --    1.03676   1.05567   1.09499   1.12438   1.22523
 Alpha virt. eigenvalues --    1.33605   1.39194   1.41362   1.47705   1.51972
 Alpha virt. eigenvalues --    1.63604   1.67793   1.71016   1.74455   1.78131
 Alpha virt. eigenvalues --    1.79834   1.83244   1.84068   1.92373   1.96133
 Alpha virt. eigenvalues --    1.99249   2.01249   2.05909   2.11573   2.13375
 Alpha virt. eigenvalues --    2.18032   2.28316   2.33904   2.34934   2.40593
 Alpha virt. eigenvalues --    2.45303   2.54148   2.61822   2.65433   2.69484
 Alpha virt. eigenvalues --    2.77125   2.86601   2.97687   3.09617   3.77142
 Alpha virt. eigenvalues --    3.87413   4.12631   4.23527   4.30524   4.59753
          Condensed to atoms (all electrons):
              1          2          3          4          5          6
     1  O    8.238696  -0.084366   0.001553  -0.091484   0.000750   0.278419
     2  O   -0.084366   8.030527  -0.007698  -0.076632  -0.003631   0.572076
     3  N    0.001553  -0.007698   6.914949   0.339657  -0.062535  -0.039027
     4  C   -0.091484  -0.076632   0.339657   4.986295   0.343568   0.322093
     5  C    0.000750  -0.003631  -0.062535   0.343568   5.193631  -0.030967
     6  C    0.278419   0.572076  -0.039027   0.322093  -0.030967   4.360737
     7  H    0.003721   0.002723  -0.048606   0.367592  -0.053650  -0.034140
     8  H    0.003668   0.000050   0.005090  -0.022643   0.343336  -0.003221
     9  H   -0.000043  -0.000045  -0.002864  -0.030369   0.373072   0.004167
    10  H    0.000036   0.002421   0.000343  -0.034087   0.364533  -0.005485
    11  H   -0.000085   0.000264   0.310604  -0.041019  -0.003997   0.005805
    12  H    0.000511   0.019728   0.302401  -0.040578  -0.000770  -0.011745
    13  H    0.215790   0.010959  -0.000212   0.010791  -0.000477  -0.006847
              7          8          9         10         11         12
     1  O    0.003721   0.003668  -0.000043   0.000036  -0.000085   0.000511
     2  O    0.002723   0.000050  -0.000045   0.002421   0.000264   0.019728
     3  N   -0.048606   0.005090  -0.002864   0.000343   0.310604   0.302401
     4  C    0.367592  -0.022643  -0.030369  -0.034087  -0.041019  -0.040578
     5  C   -0.053650   0.343336   0.373072   0.364533  -0.003997  -0.000770
     6  C   -0.034140  -0.003221   0.004167  -0.005485   0.005805  -0.011745
     7  H    0.590961   0.001087  -0.004702   0.005691  -0.000536   0.006720
     8  H    0.001087   0.562494  -0.027002  -0.024428   0.000119  -0.000047
     9  H   -0.004702  -0.027002   0.562084  -0.030284   0.004405  -0.000462
    10  H    0.005691  -0.024428  -0.030284   0.561140   0.000073   0.003701
    11  H   -0.000536   0.000119   0.004405   0.000073   0.457753  -0.029427
    12  H    0.006720  -0.000047  -0.000462   0.003701  -0.029427   0.434993
    13  H   -0.000448  -0.000109   0.000016  -0.000050   0.000008  -0.000052
             13
     1  O    0.215790
     2  O    0.010959
     3  N   -0.000212
     4  C    0.010791
     5  C   -0.000477
     6  C   -0.006847
     7  H   -0.000448
     8  H   -0.000109
     9  H    0.000016
    10  H   -0.000050
    11  H    0.000008
    12  H   -0.000052
    13  H    0.360194
 Mulliken atomic charges:
              1
     1  O   -0.567167
     2  O   -0.466377
     3  N   -0.713655
     4  C   -0.033183
     5  C   -0.462863
     6  C    0.588133
     7  H    0.163587
     8  H    0.161607
     9  H    0.152027
    10  H    0.156395
    11  H    0.296031
    12  H    0.315029
    13  H    0.410436
 Sum of Mulliken charges=   0.00000
 Atomic charges with hydrogens summed into heavy atoms:
              1
     1  O   -0.156731
     2  O   -0.466377
     3  N   -0.102595
     4  C    0.130404
     5  C    0.007166
     6  C    0.588133
     7  H    0.000000
     8  H    0.000000
     9  H    0.000000
    10  H    0.000000
    11  H    0.000000
    12  H    0.000000
    13  H    0.000000
 Sum of Mulliken charges=   0.00000
 Electronic spatial extent (au):  <R**2>=   578.0967
 Charge=     0.0000 electrons
 Dipole moment (field-independent basis, Debye):
    X=    -0.5761    Y=     1.9265    Z=     0.5065  Tot=     2.0736
 Quadrupole moment (field-independent basis, Debye-Ang):
   XX=   -27.9940   YY=   -39.6204   ZZ=   -37.9995
   XY=     1.3442   XZ=    -1.5631   YZ=    -0.2781
 Traceless Quadrupole moment (field-independent basis, Debye-Ang):
   XX=     7.2107   YY=    -4.4158   ZZ=    -2.7949
   XY=     1.3442   XZ=    -1.5631   YZ=    -0.2781
 Octapole moment (field-independent basis, Debye-Ang**2):
  XXX=    17.3334  YYY=     0.2061  ZZZ=     1.2860  XYY=    -0.5092
  XXY=     1.5433  XXZ=    -0.2388  XZZ=     2.0010  YZZ=     1.7769
  YYZ=     3.1485  XYZ=     6.6364
 Hexadecapole moment (field-independent basis, Debye-Ang**3):
 XXXX=  -282.4642 YYYY=  -229.1446 ZZZZ=  -100.8676 XXXY=    21.7226
 XXXZ=     2.5175 YYYX=     6.1269 YYYZ=    -9.3500 ZZZX=    -1.6084
 ZZZY=    -6.8688 XXYY=  -103.4581 XXZZ=   -84.8638 YYZZ=   -59.9893
 XXYZ=    -0.7985 YYXZ=    -5.7666 ZZXY=    -0.4812
 N-N= 2.489516278551D+02 E-N=-1.254846647670D+03  KE= 3.208374974156D+02
 No NMR shielding tensors so no spin-rotation constants.
 Leave Link  601 at Wed Aug  4 11:06:35 2010, MaxMem=   65536000 cpu:       0.2
 (Enter /opt/gaussian/g03_D1_amd64/g03/l9999.exe)
 1\1\GINC-MOLMOD49\SP\RB3LYP\6-31G(d)\C3H7N1O2\TOON\04-Aug-2010\0\\#p B
 3LYP/6-31G(d) sp scf(fermi,tight) density(current)\\Alanine optimizati
 on\\0,1\O,0,1.657642604,0.744201101,-0.489836837\O,0,1.102098787,-1.08
 9074323,0.697793837\N,0,-1.404760606,-1.091053462,-0.458202548\C,0,-0.
 655372082,0.16152356,-0.415839794\C,0,-1.204817386,1.230334427,0.55789
 4814\C,0,0.774816114,-0.164020328,-0.012893818\H,0,-0.627559422,0.5945
 21751,-1.422939548\H,0,-0.609640466,2.149682405,0.525945464\H,0,-2.235
 463406,1.483421899,0.284034915\H,0,-1.205447577,0.848510089,1.58534908
 1\H,0,-2.403964854,-0.8977663,-0.440132543\H,0,-1.180805308,-1.6350484
 04,0.373826645\H,0,2.53051426,0.486012629,-0.137289368\\Version=AM64L-
 G03RevD.01\State=1-A\HF=-323.7370906\RMSD=4.819e-09\Thermal=0.\Dipole=
 -0.2266358,0.7579581,0.1992908\PG=C01 [X(C3H7N1O2)]\\@


 IF I AM NOT FOR MYSELF, WHO WILL BE?
 BUT IF I AM ONLY FOR MYSELF, WHAT AM I?
 THOUGH A SEEKER SINCE MY BIRTH,
 HERE IS ALL I'VE LEARNED ON EARTH,
 THIS IS THE GIST OF WHAT I KNOW:
 GIVE ADVICE AND BUY A FOE.

 PRESSED FOR RULES AND VERITIES,
 ALL I RECOLLECT ARE THESE:
 FEED A COLD TO STARVE A FEVER,
 ARGUE WITH NO TRUE-BELIEVER.
 THINK-TOO-LONG IS NEVER-ACT,
 SCRATCH A MYTH AND FIND A FACT.

 STITCH IN TIME SAVES TWENTY STITCHES,
 GIVE THE RICH TO PLEASE THEM, RICHES.
 GIVE TO LOVE YOU HEARTH AND HALL,
 BUT DO NOT GIVE ADVICE AT ALL.

                                  -- HILLEL
 Job cpu time:  0 days  0 hours  0 minutes 31.0 seconds.
 File lengths (MBytes):  RWF=     17 Int=      0 D2E=      0 Chk=     10 Scr=      1
 Normal termination of Gaussian 03 at Wed Aug  4 11:06:35 2010.
