Alanine optimization                                                    
SP        RB3LYP                                                      6-31G(d)            
Number of atoms                            I               13
Charge                                     I                0
Multiplicity                               I                1
Number of electrons                        I               48
Number of alpha electrons                  I               24
Number of beta electrons                   I               24
Number of basis functions                  I              104
Number of independant functions            I              104
Number of point charges in /Mol/           I                0
Number of translation vectors              I                0
Info1-9                                    I   N=           9
          23          22           0           0           0         110
           1          18        -502
Num ILSW                                   I              100
ILSW                                       I   N=         100
           0           1           0           0           2           0
           0           0           0           0         402      200000
           0           0           0           0           0           0
           0      800000           0           0           0           0
           1           0           0           0     1000000           0
           0           0      100000           0          -1           0
           0           0           0           0           0           0
           0           0           0           1           0           0
           0           0           1      720000      810000           0
           0           0           0           0           0           0
           0           0           0           0           0           0
           0           0           0           0           0           0
           0           0           0           0           0           0
           0           0           0           0           0           0
           0           0           0           0           0           0
           0           0           0           0           0           0
           0           0           0           0
Number of contracted shells                I               38
Highest angular momentum                   I                2
Largest degree of contraction              I                6
Number of primitive shells                 I               94
Pure/Cartesian d shells                    I                1
Pure/Cartesian f shells                    I                0
Virial Ratio                               R      2.009037575795322E+00
SCF Energy                                 R     -3.237370906164732E+02
Total Energy                               R     -3.237370906164732E+02
RMS Density                                R      4.819446621921379E-09
Atomic numbers                             I   N=          13
           8           8           7           6           6           6
           1           1           1           1           1           1
           1
Nuclear charges                            R   N=          13
  8.00000000E+00  8.00000000E+00  7.00000000E+00  6.00000000E+00  6.00000000E+00
  6.00000000E+00  1.00000000E+00  1.00000000E+00  1.00000000E+00  1.00000000E+00
  1.00000000E+00  1.00000000E+00  1.00000000E+00
Current cartesian coordinates              R   N=          39
  3.13249055E+00  1.40633627E+00 -9.25657473E-01  2.08266488E+00 -2.05805221E+00
  1.31863925E+00 -2.65461283E+00 -2.06179224E+00 -8.65877330E-01 -1.23847375E+00
  3.05235292E-01 -7.85823327E-01 -2.27677490E+00  2.32499512E+00  1.05426841E+00
  1.46419026E+00 -3.09953500E-01 -2.43657857E-02 -1.18591544E+00  1.12348329E+00
 -2.68896605E+00 -1.15205352E+00  4.06231102E+00  9.93892887E-01 -4.22441362E+00
  2.80326113E+00  5.36748201E-01 -2.27796579E+00  1.60345169E+00  2.99587559E+00
 -4.54283521E+00 -1.69653244E+00 -8.31729970E-01 -2.23139865E+00 -3.08979370E+00
  7.06429980E-01  4.78197893E+00  9.18430768E-01 -2.59439307E-01
Int Atom Types                             I   N=          13
           0           0           0           0           0           0
           0           0           0           0           0           0
           0
Force Field                                I                0
MM charges                                 R   N=          13
  0.00000000E+00  0.00000000E+00  0.00000000E+00  0.00000000E+00  0.00000000E+00
  0.00000000E+00  0.00000000E+00  0.00000000E+00  0.00000000E+00  0.00000000E+00
  0.00000000E+00  0.00000000E+00  0.00000000E+00
Integer atomic weights                     I   N=          13
          16          16          14          12          12          12
           1           1           1           1           1           1
           1
Real atomic weights                        R   N=          13
  1.59949146E+01  1.59949146E+01  1.40030740E+01  1.20000000E+01  1.20000000E+01
  1.20000000E+01  1.00782504E+00  1.00782504E+00  1.00782504E+00  1.00782504E+00
  1.00782504E+00  1.00782504E+00  1.00782504E+00
Atom residue info                          I   N=          13
           0           0           0           0           0           0
           0           0           0           0           0           0
           0
Atom fragment info                         I   N=          13
           0           0           0           0           0           0
           0           0           0           0           0           0
           0
Atom residue num                           I   N=          13
           0           0           0           0           0           0
           0           0           0           0           0           0
           0
Nuclear spins                              I   N=          13
           0           0           2           0           0           0
           1           1           1           1           1           1
           1
Nuclear ZEff                               R   N=          13
 -5.60000000E+00 -5.60000000E+00 -4.55000000E+00 -3.60000000E+00 -3.60000000E+00
 -3.60000000E+00 -1.00000000E+00 -1.00000000E+00 -1.00000000E+00 -1.00000000E+00
 -1.00000000E+00 -1.00000000E+00 -1.00000000E+00
Nuclear QMom                               R   N=          13
  0.00000000E+00  0.00000000E+00  2.04400000E+00  0.00000000E+00  0.00000000E+00
  0.00000000E+00  0.00000000E+00  0.00000000E+00  0.00000000E+00  0.00000000E+00
  0.00000000E+00  0.00000000E+00  0.00000000E+00
Nuclear GFac                               R   N=          13
  0.00000000E+00  0.00000000E+00  4.03761000E-01  0.00000000E+00  0.00000000E+00
  0.00000000E+00  2.79284600E+00  2.79284600E+00  2.79284600E+00  2.79284600E+00
  2.79284600E+00  2.79284600E+00  2.79284600E+00
MicOpt                                     I   N=          13
          -1          -1          -1          -1          -1          -1
          -1          -1          -1          -1          -1          -1
          -1
Constraint Structure                       R   N=          39
  3.13249055E+00  1.40633627E+00 -9.25657473E-01  2.08266488E+00 -2.05805221E+00
  1.31863925E+00 -2.65461283E+00 -2.06179224E+00 -8.65877330E-01 -1.23847375E+00
  3.05235292E-01 -7.85823327E-01 -2.27677490E+00  2.32499512E+00  1.05426841E+00
  1.46419026E+00 -3.09953500E-01 -2.43657857E-02 -1.18591544E+00  1.12348329E+00
 -2.68896605E+00 -1.15205352E+00  4.06231102E+00  9.93892887E-01 -4.22441362E+00
  2.80326113E+00  5.36748201E-01 -2.27796579E+00  1.60345169E+00  2.99587559E+00
 -4.54283521E+00 -1.69653244E+00 -8.31729970E-01 -2.23139865E+00 -3.08979370E+00
  7.06429980E-01  4.78197893E+00  9.18430768E-01 -2.59439307E-01
ONIOM Charges                              I   N=          16
           0           0           0           0           0           0
           0           0           0           0           0           0
           0           0           0           0
ONIOM Multiplicities                       I   N=          16
           1           0           0           0           0           0
           0           0           0           0           0           0
           0           0           0           0
Atom Layers                                I   N=          13
           1           1           1           1           1           1
           1           1           1           1           1           1
           1
Atom Modifiers                             I   N=          13
           0           0           0           0           0           0
           0           0           0           0           0           0
           0
Int Atom Modified Types                    I   N=          13
           0           0           0           0           0           0
           0           0           0           0           0           0
           0
Link Atoms                                 I   N=          13
           0           0           0           0           0           0
           0           0           0           0           0           0
           0
Atom Modified MM Charges                   R   N=          13
  0.00000000E+00  0.00000000E+00  0.00000000E+00  0.00000000E+00  0.00000000E+00
  0.00000000E+00  0.00000000E+00  0.00000000E+00  0.00000000E+00  0.00000000E+00
  0.00000000E+00  0.00000000E+00  0.00000000E+00
Link Distances                             R   N=          52
  0.00000000E+00  0.00000000E+00  0.00000000E+00  0.00000000E+00  0.00000000E+00
  0.00000000E+00  0.00000000E+00  0.00000000E+00  0.00000000E+00  0.00000000E+00
  0.00000000E+00  0.00000000E+00  0.00000000E+00  0.00000000E+00  0.00000000E+00
  0.00000000E+00  0.00000000E+00  0.00000000E+00  0.00000000E+00  0.00000000E+00
  0.00000000E+00  0.00000000E+00  0.00000000E+00  0.00000000E+00  0.00000000E+00
  0.00000000E+00  0.00000000E+00  0.00000000E+00  0.00000000E+00  0.00000000E+00
  0.00000000E+00  0.00000000E+00  0.00000000E+00  0.00000000E+00  0.00000000E+00
  0.00000000E+00  0.00000000E+00  0.00000000E+00  0.00000000E+00  0.00000000E+00
  0.00000000E+00  0.00000000E+00  0.00000000E+00  0.00000000E+00  0.00000000E+00
  0.00000000E+00  0.00000000E+00  0.00000000E+00  0.00000000E+00  0.00000000E+00
  0.00000000E+00  0.00000000E+00
MxBond                                     I                4
NBond                                      I   N=          13
           2           1           3           4           4           3
           1           1           1           1           1           1
           1
IBond                                      I   N=          52
           6          13           0           0           6           0
           0           0           4          11          12           0
           3           5           6           7           4           8
           9          10           1           2           4           0
           4           0           0           0           5           0
           0           0           5           0           0           0
           5           0           0           0           3           0
           0           0           3           0           0           0
           1           0           0           0
RBond                                      R   N=          52
  1.50000000E+00  1.00000000E+00  0.00000000E+00  0.00000000E+00  2.00000000E+00
  0.00000000E+00  0.00000000E+00  0.00000000E+00  1.00000000E+00  1.00000000E+00
  1.00000000E+00  0.00000000E+00  1.00000000E+00  1.00000000E+00  1.00000000E+00
  1.00000000E+00  1.00000000E+00  1.00000000E+00  1.00000000E+00  1.00000000E+00
  1.50000000E+00  2.00000000E+00  1.00000000E+00  0.00000000E+00  1.00000000E+00
  0.00000000E+00  0.00000000E+00  0.00000000E+00  1.00000000E+00  0.00000000E+00
  0.00000000E+00  0.00000000E+00  1.00000000E+00  0.00000000E+00  0.00000000E+00
  0.00000000E+00  1.00000000E+00  0.00000000E+00  0.00000000E+00  0.00000000E+00
  1.00000000E+00  0.00000000E+00  0.00000000E+00  0.00000000E+00  1.00000000E+00
  0.00000000E+00  0.00000000E+00  0.00000000E+00  1.00000000E+00  0.00000000E+00
  0.00000000E+00  0.00000000E+00
Shell types                                I   N=          38
           0          -1          -1           2           0          -1
          -1           2           0          -1          -1           2
           0          -1          -1           2           0          -1
          -1           2           0          -1          -1           2
           0           0           0           0           0           0
           0           0           0           0           0           0
           0           0
Number of primitives per shell             I   N=          38
           6           3           1           1           6           3
           1           1           6           3           1           1
           6           3           1           1           6           3
           1           1           6           3           1           1
           3           1           3           1           3           1
           3           1           3           1           3           1
           3           1
Shell to atom map                          I   N=          38
           1           1           1           1           2           2
           2           2           3           3           3           3
           4           4           4           4           5           5
           5           5           6           6           6           6
           7           7           8           8           9           9
          10          10          11          11          12          12
          13          13
Primitive exponents                        R   N=          94
  5.48467166E+03  8.25234946E+02  1.88046958E+02  5.29645000E+01  1.68975704E+01
  5.79963534E+00  1.55396162E+01  3.59993359E+00  1.01376175E+00  2.70005823E-01
  8.00000000E-01  5.48467166E+03  8.25234946E+02  1.88046958E+02  5.29645000E+01
  1.68975704E+01  5.79963534E+00  1.55396162E+01  3.59993359E+00  1.01376175E+00
  2.70005823E-01  8.00000000E-01  4.17351146E+03  6.27457911E+02  1.42902093E+02
  4.02343293E+01  1.28202129E+01  4.39043701E+00  1.16263619E+01  2.71627981E+00
  7.72218397E-01  2.12031498E-01  8.00000000E-01  3.04752488E+03  4.57369518E+02
  1.03948685E+02  2.92101553E+01  9.28666296E+00  3.16392696E+00  7.86827235E+00
  1.88128854E+00  5.44249258E-01  1.68714478E-01  8.00000000E-01  3.04752488E+03
  4.57369518E+02  1.03948685E+02  2.92101553E+01  9.28666296E+00  3.16392696E+00
  7.86827235E+00  1.88128854E+00  5.44249258E-01  1.68714478E-01  8.00000000E-01
  3.04752488E+03  4.57369518E+02  1.03948685E+02  2.92101553E+01  9.28666296E+00
  3.16392696E+00  7.86827235E+00  1.88128854E+00  5.44249258E-01  1.68714478E-01
  8.00000000E-01  1.87311370E+01  2.82539436E+00  6.40121692E-01  1.61277759E-01
  1.87311370E+01  2.82539436E+00  6.40121692E-01  1.61277759E-01  1.87311370E+01
  2.82539436E+00  6.40121692E-01  1.61277759E-01  1.87311370E+01  2.82539436E+00
  6.40121692E-01  1.61277759E-01  1.87311370E+01  2.82539436E+00  6.40121692E-01
  1.61277759E-01  1.87311370E+01  2.82539436E+00  6.40121692E-01  1.61277759E-01
  1.87311370E+01  2.82539436E+00  6.40121692E-01  1.61277759E-01
Contraction coefficients                   R   N=          94
  1.83107443E-03  1.39501722E-02  6.84450781E-02  2.32714336E-01  4.70192898E-01
  3.58520853E-01 -1.10777550E-01 -1.48026263E-01  1.13076702E+00  1.00000000E+00
  1.00000000E+00  1.83107443E-03  1.39501722E-02  6.84450781E-02  2.32714336E-01
  4.70192898E-01  3.58520853E-01 -1.10777550E-01 -1.48026263E-01  1.13076702E+00
  1.00000000E+00  1.00000000E+00  1.83477216E-03  1.39946270E-02  6.85865518E-02
  2.32240873E-01  4.69069948E-01  3.60455199E-01 -1.14961182E-01 -1.69117479E-01
  1.14585195E+00  1.00000000E+00  1.00000000E+00  1.83473713E-03  1.40373228E-02
  6.88426223E-02  2.32184443E-01  4.67941348E-01  3.62311985E-01 -1.19332420E-01
 -1.60854152E-01  1.14345644E+00  1.00000000E+00  1.00000000E+00  1.83473713E-03
  1.40373228E-02  6.88426223E-02  2.32184443E-01  4.67941348E-01  3.62311985E-01
 -1.19332420E-01 -1.60854152E-01  1.14345644E+00  1.00000000E+00  1.00000000E+00
  1.83473713E-03  1.40373228E-02  6.88426223E-02  2.32184443E-01  4.67941348E-01
  3.62311985E-01 -1.19332420E-01 -1.60854152E-01  1.14345644E+00  1.00000000E+00
  1.00000000E+00  3.34946043E-02  2.34726953E-01  8.13757326E-01  1.00000000E+00
  3.34946043E-02  2.34726953E-01  8.13757326E-01  1.00000000E+00  3.34946043E-02
  2.34726953E-01  8.13757326E-01  1.00000000E+00  3.34946043E-02  2.34726953E-01
  8.13757326E-01  1.00000000E+00  3.34946043E-02  2.34726953E-01  8.13757326E-01
  1.00000000E+00  3.34946043E-02  2.34726953E-01  8.13757326E-01  1.00000000E+00
  3.34946043E-02  2.34726953E-01  8.13757326E-01  1.00000000E+00
P(S=P) Contraction coefficients            R   N=          94
  0.00000000E+00  0.00000000E+00  0.00000000E+00  0.00000000E+00  0.00000000E+00
  0.00000000E+00  7.08742682E-02  3.39752839E-01  7.27158577E-01  1.00000000E+00
  0.00000000E+00  0.00000000E+00  0.00000000E+00  0.00000000E+00  0.00000000E+00
  0.00000000E+00  0.00000000E+00  7.08742682E-02  3.39752839E-01  7.27158577E-01
  1.00000000E+00  0.00000000E+00  0.00000000E+00  0.00000000E+00  0.00000000E+00
  0.00000000E+00  0.00000000E+00  0.00000000E+00  6.75797439E-02  3.23907296E-01
  7.40895140E-01  1.00000000E+00  0.00000000E+00  0.00000000E+00  0.00000000E+00
  0.00000000E+00  0.00000000E+00  0.00000000E+00  0.00000000E+00  6.89990666E-02
  3.16423961E-01  7.44308291E-01  1.00000000E+00  0.00000000E+00  0.00000000E+00
  0.00000000E+00  0.00000000E+00  0.00000000E+00  0.00000000E+00  0.00000000E+00
  6.89990666E-02  3.16423961E-01  7.44308291E-01  1.00000000E+00  0.00000000E+00
  0.00000000E+00  0.00000000E+00  0.00000000E+00  0.00000000E+00  0.00000000E+00
  0.00000000E+00  6.89990666E-02  3.16423961E-01  7.44308291E-01  1.00000000E+00
  0.00000000E+00  0.00000000E+00  0.00000000E+00  0.00000000E+00  0.00000000E+00
  0.00000000E+00  0.00000000E+00  0.00000000E+00  0.00000000E+00  0.00000000E+00
  0.00000000E+00  0.00000000E+00  0.00000000E+00  0.00000000E+00  0.00000000E+00
  0.00000000E+00  0.00000000E+00  0.00000000E+00  0.00000000E+00  0.00000000E+00
  0.00000000E+00  0.00000000E+00  0.00000000E+00  0.00000000E+00  0.00000000E+00
  0.00000000E+00  0.00000000E+00  0.00000000E+00  0.00000000E+00
Coordinates of each shell                  R   N=         114
  3.13249055E+00  1.40633627E+00 -9.25657473E-01  3.13249055E+00  1.40633627E+00
 -9.25657473E-01  3.13249055E+00  1.40633627E+00 -9.25657473E-01  3.13249055E+00
  1.40633627E+00 -9.25657473E-01  2.08266488E+00 -2.05805221E+00  1.31863925E+00
  2.08266488E+00 -2.05805221E+00  1.31863925E+00  2.08266488E+00 -2.05805221E+00
  1.31863925E+00  2.08266488E+00 -2.05805221E+00  1.31863925E+00 -2.65461283E+00
 -2.06179224E+00 -8.65877330E-01 -2.65461283E+00 -2.06179224E+00 -8.65877330E-01
 -2.65461283E+00 -2.06179224E+00 -8.65877330E-01 -2.65461283E+00 -2.06179224E+00
 -8.65877330E-01 -1.23847375E+00  3.05235292E-01 -7.85823327E-01 -1.23847375E+00
  3.05235292E-01 -7.85823327E-01 -1.23847375E+00  3.05235292E-01 -7.85823327E-01
 -1.23847375E+00  3.05235292E-01 -7.85823327E-01 -2.27677490E+00  2.32499512E+00
  1.05426841E+00 -2.27677490E+00  2.32499512E+00  1.05426841E+00 -2.27677490E+00
  2.32499512E+00  1.05426841E+00 -2.27677490E+00  2.32499512E+00  1.05426841E+00
  1.46419026E+00 -3.09953500E-01 -2.43657857E-02  1.46419026E+00 -3.09953500E-01
 -2.43657857E-02  1.46419026E+00 -3.09953500E-01 -2.43657857E-02  1.46419026E+00
 -3.09953500E-01 -2.43657857E-02 -1.18591544E+00  1.12348329E+00 -2.68896605E+00
 -1.18591544E+00  1.12348329E+00 -2.68896605E+00 -1.15205352E+00  4.06231102E+00
  9.93892887E-01 -1.15205352E+00  4.06231102E+00  9.93892887E-01 -4.22441362E+00
  2.80326113E+00  5.36748201E-01 -4.22441362E+00  2.80326113E+00  5.36748201E-01
 -2.27796579E+00  1.60345169E+00  2.99587559E+00 -2.27796579E+00  1.60345169E+00
  2.99587559E+00 -4.54283521E+00 -1.69653244E+00 -8.31729970E-01 -4.54283521E+00
 -1.69653244E+00 -8.31729970E-01 -2.23139865E+00 -3.08979370E+00  7.06429980E-01
 -2.23139865E+00 -3.08979370E+00  7.06429980E-01  4.78197893E+00  9.18430768E-01
 -2.59439307E-01  4.78197893E+00  9.18430768E-01 -2.59439307E-01
Alpha Orbital Energies                     R   N=         104
 -1.92021045E+01 -1.91444242E+01 -1.43142872E+01 -1.03225389E+01 -1.02319080E+01
 -1.01902349E+01 -1.11012181E+00 -1.01999220E+00 -8.90683242E-01 -7.52526533E-01
 -6.72951086E-01 -5.86790827E-01 -5.26031061E-01 -4.87464072E-01 -4.65160568E-01
 -4.42612566E-01 -4.35202564E-01 -4.09165548E-01 -4.07200447E-01 -3.75240892E-01
 -3.65439409E-01 -3.22426511E-01 -2.80100162E-01 -2.37817884E-01  6.27858869E-03
  7.09717574E-02  8.49682874E-02  1.36014603E-01  1.40932590E-01  1.55112049E-01
  1.67506132E-01  1.82567605E-01  2.13458195E-01  2.24532984E-01  2.67845523E-01
  3.18191741E-01  3.67789363E-01  5.19219742E-01  5.35811426E-01  5.46476420E-01
  5.56190420E-01  6.04764262E-01  6.31231207E-01  6.67120897E-01  6.93842046E-01
  7.24703441E-01  7.56247312E-01  7.72959809E-01  7.99386137E-01  8.22489927E-01
  8.40676899E-01  8.73945930E-01  8.94540855E-01  9.13941608E-01  9.32856603E-01
  9.37898533E-01  9.52025708E-01  9.67955280E-01  9.71301096E-01  1.03675619E+00
  1.05567452E+00  1.09499471E+00  1.12438109E+00  1.22523168E+00  1.33604806E+00
  1.39193501E+00  1.41361941E+00  1.47704911E+00  1.51971896E+00  1.63603759E+00
  1.67793361E+00  1.71015791E+00  1.74454770E+00  1.78131089E+00  1.79833613E+00
  1.83243984E+00  1.84067556E+00  1.92373120E+00  1.96132673E+00  1.99249138E+00
  2.01248784E+00  2.05909016E+00  2.11573191E+00  2.13375308E+00  2.18032402E+00
  2.28315556E+00  2.33904125E+00  2.34933986E+00  2.40593226E+00  2.45302929E+00
  2.54148335E+00  2.61821936E+00  2.65433301E+00  2.69483694E+00  2.77125045E+00
  2.86601347E+00  2.97687233E+00  3.09617077E+00  3.77141778E+00  3.87412837E+00
  4.12630632E+00  4.23527392E+00  4.30523739E+00  4.59752647E+00
Alpha MO coefficients                      R   N=       10816
  9.92700529E-01  2.57589111E-02  3.33947724E-04 -7.06248926E-04  5.78292438E-04
  1.33158082E-02 -9.55127658E-04 -5.48179903E-04  2.08863607E-04 -8.16304209E-03
 -8.20824169E-03 -8.21467859E-03  4.93177730E-05 -3.42287694E-05  2.15680621E-05
 -3.61724027E-05  2.58192475E-04 -5.52774005E-05 -2.02222396E-05  8.39561523E-06
 -1.57110843E-03  4.66744782E-04 -2.16387237E-04  2.23109020E-04  1.17552822E-04
  7.23237880E-05  1.11504055E-04  8.61638998E-06 -1.51249995E-05  7.37061248E-05
  2.08069138E-05  9.29851169E-05  3.24697299E-05  7.28202405E-06  2.37243257E-06
 -4.55638361E-04 -3.96542702E-04 -1.59073317E-04  4.81784145E-05  3.35680185E-06
  4.16911084E-05  5.49543343E-05 -4.57259274E-05 -1.94055049E-05  2.92329347E-05
  1.44101169E-05  1.15698078E-04  4.90106789E-05  2.13818935E-05  5.28900427E-05
  3.58099692E-04  1.01562181E-04 -2.36012913E-04 -6.82092280E-04 -2.14163774E-05
  3.47838985E-05 -3.91787657E-06  3.13685485E-05 -1.78410596E-05  2.29889284E-05
 -2.48155059E-05 -1.30594655E-04  2.86284120E-05 -2.59501861E-05 -1.74445061E-05
  8.89797823E-04  1.91081713E-04 -8.75627909E-05 -3.45928362E-05  1.71201248E-05
 -3.61026961E-05 -4.35921086E-05 -1.05179667E-05 -1.94795596E-05 -3.30731083E-06
  1.90606772E-05  4.28135683E-04  2.05744030E-04  2.32362291E-04 -9.68260409E-05
 -1.87219032E-03 -9.89575065E-04 -2.23033876E-03  1.45223874E-03  3.35562223E-07
  8.28638573E-05  3.60907999E-05 -2.66292878E-05 -7.15765501E-06 -6.10494610E-05
  3.90916741E-05 -4.01595860E-04  2.26819343E-05 -2.41794996E-04 -3.84894466E-05
 -6.62084389E-06 -3.13705790E-05 -1.47055122E-04 -2.89133158E-05 -9.50670764E-05
  3.98477295E-05 -9.86746508E-05  4.22438799E-04 -1.01297931E-03  1.09777710E-04
  1.35470400E-04 -5.92258374E-05  2.06697732E-05 -3.20862127E-05 -8.91754113E-04
  5.71265402E-04 -1.08063334E-04  1.99816029E-04  9.51554800E-05  3.28659625E-05
  3.90909007E-05 -1.30582553E-06  4.33990446E-06  1.47228876E-05  9.92687057E-01
  2.54505019E-02 -2.92311608E-04  9.14867951E-04 -6.83121160E-04  1.55360429E-02
 -5.72875997E-04  1.53975695E-03 -1.20899664E-03 -8.26859582E-03 -7.96595751E-03
 -8.11782788E-03 -1.41358446E-04  1.15199603E-04 -3.27107163E-04  7.06115208E-06
  2.91060948E-05  1.15865292E-05  2.21782606E-05 -5.13496433E-06 -4.31724886E-04
  4.52194458E-05 -4.59070886E-04  5.22740253E-05  5.10095500E-05 -4.44843376E-05
  3.32679032E-05 -1.13146725E-06 -7.82151169E-06 -1.66970711E-05  1.32100099E-05
  7.41286565E-05  4.05829009E-05  9.58906698E-06 -2.25203018E-05 -8.82301160E-04
 -1.21708681E-03 -8.53665931E-04  4.09430915E-04  1.96535966E-06  5.03482850E-05
  1.16917900E-06  1.55052232E-05  1.05939424E-05  1.26368547E-05 -1.54584944E-06
  7.58353067E-07  5.42748371E-06 -5.68026358E-06  6.52324960E-06  4.62225109E-05
  1.60018346E-04  2.50845447E-04 -1.62418723E-04 -1.12318776E-05 -2.32902694E-05
  1.42308826E-05 -2.03007411E-05 -1.93320677E-05 -2.39971658E-05 -1.11450819E-05
  3.99236018E-04 -1.25247732E-05  6.95843145E-05 -5.02919297E-05 -2.86415298E-03
 -1.31288672E-03  3.50045143E-03 -2.67325838E-03 -9.74954147E-05 -5.66239957E-04
 -3.60961103E-04  2.18627401E-04 -1.64591754E-04  4.59104966E-04  1.06197976E-04
  1.73386221E-04 -7.76122685E-06 -2.15139446E-04  7.96858169E-06 -4.45129722E-05
 -1.33707285E-05  2.14953137E-04  2.28012906E-05  2.25864858E-05  6.11615950E-05
 -3.85223476E-04 -4.73396164E-05 -5.34959967E-05  1.69821042E-06  1.21391662E-05
 -9.61796473E-07  7.14085135E-07  6.73988158E-06 -1.09121840E-04  1.44777691E-05
  2.15321886E-06 -2.30069669E-05  9.60906267E-07  9.83042974E-06  4.90130289E-06
  1.11876444E-05 -3.30714005E-07 -5.23292725E-06 -2.63747619E-06 -1.26473934E-05
 -4.05959348E-06 -1.95807329E-06 -7.19367145E-06  1.71876298E-04 -3.78742856E-05
  2.27872572E-05 -5.16186985E-06 -1.21548505E-05 -4.31670335E-06 -9.32265048E-07
 -4.77479275E-06 -8.64949101E-06  5.04102513E-06  9.92704616E-01  3.47100566E-02
 -3.26343994E-04  6.45698294E-04  9.71058432E-04  3.57279775E-03  1.35008033E-04
 -3.44153650E-04 -3.93809167E-04 -8.19057188E-03 -8.25838701E-03 -8.19570900E-03
 -3.38181503E-05 -8.37428226E-06 -4.15447986E-05 -1.83736764E-05  5.16670496E-05
 -1.23881799E-04 -2.38676429E-04 -4.54414393E-05  4.05947213E-04  1.61763776E-05
  1.19161817E-04  4.34916466E-04 -5.08078711E-06  5.20508042E-05 -5.57022491E-05
  3.52359640E-05  5.19852540E-06  2.22232100E-05  2.20490215E-06  6.36503103E-05
  6.08583845E-06  5.22002623E-05  2.52341710E-05 -3.88146285E-04 -1.31102175E-04
  9.37264796E-05  3.53892352E-05 -1.10372964E-05 -5.96606041E-05 -1.02249415E-05
  2.16738732E-06  5.04446074E-06 -1.77085722E-05  3.59174277E-06  7.23090966E-05
  2.36522097E-05 -1.71342647E-05 -4.04132437E-06 -2.94032774E-04  2.16765646E-04
  1.81769713E-04 -8.50470748E-05 -6.16547215E-05 -1.59933186E-05 -3.17435517E-06
 -1.71908188E-05 -5.23188920E-06 -4.91026183E-07  1.72427868E-05  1.08684842E-05
  2.48542336E-05  4.20469250E-05 -3.19017395E-06 -4.33630655E-06  4.84707681E-06
  5.57936625E-05  2.88988802E-04 -3.37398689E-04  2.76302743E-04 -3.86859714E-04
  4.01619722E-06 -1.93444946E-05 -4.62698235E-05  2.41596365E-04  1.62904729E-04
  2.49279592E-05  8.81757442E-06 -4.42758539E-04 -1.75687744E-04  1.32382167E-03
 -8.69214472E-04 -1.46974831E-04 -2.91766491E-04  1.46732123E-04 -4.21519459E-04
  1.77989890E-04  4.27187084E-04 -1.12237607E-04  5.50006102E-04  8.65643038E-05
 -1.59723204E-05 -1.22171448E-05 -4.05022712E-03 -2.44434725E-04 -1.80106656E-03
  1.44462694E-03  3.98286412E-04  3.49331835E-05  2.06554905E-04 -2.17846544E-05
 -1.39764764E-05  3.83172984E-04 -3.02154796E-05 -1.50119782E-04 -8.18697296E-05
 -1.61897257E-05 -1.10828473E-05  3.75967060E-04  3.16061570E-04  1.85588159E-04
  2.13526378E-04 -1.24654214E-05 -1.75243000E-05 -1.13724065E-04  1.00597709E-05
  8.68665010E-05  6.90737521E-06  1.14435839E-03 -1.16278048E-04 -1.30847504E-04
  6.24264529E-05 -3.95537058E-06  4.16859542E-03  2.88989952E-03 -5.16021322E-04
 -3.54468978E-04 -3.24801688E-04 -2.27328085E-04 -1.61255257E-04  6.24314848E-05
 -6.92684959E-05 -4.22647141E-05 -1.05114209E-04 -3.97586503E-04 -2.03047591E-04
  8.12996375E-05 -1.57168909E-05  1.40612966E-03  1.14357457E-03 -8.02516782E-04
  3.44981272E-06 -6.95775244E-05 -5.73676055E-05 -1.14898294E-04 -5.81295293E-05
 -2.11794267E-05  5.45803132E-05  9.92963703E-01  4.84548510E-02  8.22484569E-04
  1.32677141E-04  1.92903301E-04 -8.09819636E-03  4.48962715E-03 -2.63899763E-03
  2.16233137E-03 -8.86498286E-03 -8.49775939E-03 -9.00919006E-03  5.19504259E-05
  6.53280750E-05 -7.88007375E-04 -2.27738190E-04 -7.95986229E-05 -1.56577945E-04
 -3.04843813E-05  2.68693273E-05  6.92574383E-04 -1.72290319E-04 -2.17612863E-04
  3.52133486E-05  2.48873894E-04 -7.63543562E-05  2.47709538E-05  2.80153544E-04
  1.08886605E-04 -9.47284357E-05 -4.88730958E-04  1.18766634E-04  6.60786372E-05
 -2.81934092E-05  2.20981466E-03 -6.15079748E-04 -6.97017834E-04  4.20939529E-04
 -1.74965084E-04 -2.22326835E-04 -3.28286347E-04  4.63046060E-05 -2.86963116E-05
 -1.34229626E-04 -4.10908203E-05 -2.01439544E-04 -5.54621663E-06 -5.47220335E-05
 -3.14140873E-06  4.56316148E-04  6.27931301E-04  4.61046154E-04 -9.20243928E-05
 -1.03832183E-04 -4.01301128E-05 -1.78959026E-04  4.51940893E-05 -5.23039444E-05
 -1.63667916E-04 -1.75558987E-04 -3.78235990E-04 -1.76969445E-05 -1.56901527E-04
  2.77025203E-05  5.30078032E-03  7.38983827E-04  1.93316375E-03  3.06763978E-04
 -3.10698278E-04 -4.99883752E-04 -1.42656372E-04 -2.11421547E-04  2.41532144E-05
  4.27055038E-05  9.93230639E-01  5.04619090E-02  1.21346584E-04 -2.49000047E-04
  2.61675525E-04 -2.46916840E-02 -9.83129032E-04  1.01194288E-03 -2.46547199E-03